102
Lattice="40 0 0 0 40 0 0 0 40" Properties=species:S:1:pos:R:3:forces:R:3 energy=-517.7935791015625 stress="0.00041842093924060464 -0.0005995396641083062 0.00013006401422899216 -0.0005995396641083062 0.0012579396134242415 0.0002114356029778719 0.00013006401422899216 0.0002114356029778719 0.001914160093292594" pbc="T T T"
H       12.08940100      12.50907101      14.74500905       0.01163516       0.00237694       0.05065985
He       5.52507497       8.88015860      13.65391516      -0.01336517       0.12389426       0.00299305
Li       5.89097196       7.23550783       5.05304788      -0.00960850      -0.00386683      -0.00244624
Be       3.35869482       1.89083410      15.79141444      -0.02003877       0.02472462       0.04384318
B        0.09781536      10.09665216      14.29069234       0.14905289      -0.00622426      -0.09772768
C        0.20093229       1.65706344       0.27426337      -0.13932581       0.12152927      -0.19674323
N        2.44085389       1.11239480       8.15784252       0.02199875       0.08240548       0.02517337
O        9.23028619      12.15228363       3.29011357      -0.18109283       0.03434110       0.28793624
F       16.51453757       4.49487375       0.35553374       0.05512886       0.09763630      -0.07629733
Ne      13.44181862       0.23042621      13.97879849       0.00271171       0.02684220       0.06676414
Na      12.46757132       3.07775596       4.27721824       0.00432395      -0.02365754       0.01735262
Mg      15.18914169       6.19623622       5.31560166      -0.06599098       0.02641281      -0.07788053
Al       1.76530197       9.23024838      14.24398831      -0.13863446      -0.00634277       0.04140687
Si       9.46235924       1.43769256       9.93006769       0.05127692      -0.10049911       0.02123985
P        0.20454892       9.01572107      10.10255081       0.09784991      -0.13590144       0.09486102
S       14.70493942       1.62936439       3.44526056       0.02725504      -0.00971258       0.03347252
Cl       9.61945562       4.83595447       7.25944051      -0.04094703       0.00044905      -0.12410039
Ar       6.03023656      10.34569898       0.22413172       0.05086751       0.03568595       0.04238003
K       10.84366686      13.30612092       1.59065762       0.07049197       0.01511714       0.00517111
Ca       2.74954281      15.71771071       8.06493371      -0.02159589       0.06426655       0.00198118
Sc      16.03598503       8.01093708      14.69670228       0.10472198       0.01903053       0.02132296
Ti       1.00831449      13.29009021       5.25907346      -0.11726695       0.04058804       0.02795798
V       16.72801675       0.24403191       3.66200303      -0.07382577      -0.06553009       0.37560207
Cr      15.15298513       9.61445359       2.71023715      -0.04961886       0.03593020      -0.03227769
Mn       6.63835193       1.29348945      13.15962225      -0.12358863       0.00293751      -0.05725873
Fe       6.70119840       9.49751480       4.27054039      -0.03979676      -0.12106065      -0.06248311
Co       5.44933577       9.68359146       6.05894583      -0.10449925       0.08037193       0.07929446
Ni      16.69389753       9.65550453      15.97872699      -0.03717458      -0.12723732       0.14413330
Cu      14.10026771       8.14581351       4.07952776      -0.03305914      -0.02720179      -0.02744570
Zn       4.95533353       4.47552000      10.97049168       0.03951571       0.04388008      -0.00264828
Ga       6.31958347       3.45568105       9.36208691      -0.06268673      -0.10138720       0.05566921
Ge      10.43048785       0.77792137       5.28514987       0.02252434       0.08597859      -0.02390924
As       2.03640842       1.38179430       3.50795379       0.13633235      -0.08369938      -0.03944172
Se       8.92639010      16.43537250       8.56463593      -0.05832039      -0.02784275       0.01551053
Br       5.78902120       1.14339166       5.41632591      -0.07546796       0.10392891      -0.04979306
Kr      14.19557557      16.68963170       8.22529675      -0.01238981       0.01417620       0.00358853
Rb      11.17013119       2.34178618      12.78651003      -0.01621547      -0.04743046      -0.05330276
Sr      11.36717009      12.02322133      12.80171332       0.00300570      -0.03636833      -0.03403198
Y       15.96923534       3.18937745       1.81553889       0.02094471       0.00643744       0.19788736
Zr      15.10898673       8.51680960      11.81209643      -0.08230165      -0.07254367       0.08367041
Nb       8.21504618       9.46256099       5.42367363       0.02899905      -0.05651061       0.01019934
Mo       9.49623725      15.26150863       4.46110271      -0.39221027       0.03124894       0.19738254
Tc       7.01976562       8.53769714       7.08611153       0.00267164       0.10540418      -0.09605604
Ru      16.09829396      11.76909316       3.81808063      -0.01986384       0.05083531       0.04715348
Rh       9.24072487       6.54707801       0.22763418       0.00967218       0.00490332       0.01475424
Pd      15.62370783       4.19391841       6.63930650      -0.01303354       0.08654521       0.08288568
Ag      16.13180368      14.48616817       3.40903904       0.02094054      -0.10077047      -0.06716394
Cd       7.87990166       2.12993558      15.15684005       0.06864667      -0.01911914       0.10876749
In      11.17736051       5.51539725       1.18966753      -0.02774905      -0.03051665       0.00459838
Sn       5.46103577      13.87319318       5.59082685       0.12607183      -0.08435584       0.10221292
Sb       4.06856438       3.29865434       0.60748244      -0.04627620      -0.00908157      -0.00866777
Te      14.27080991      12.29481923      11.68158857       0.03254630      -0.00583025      -0.06498321
I        2.10770618      13.90981044      10.58352239       0.05925015       0.03436905       0.03167632
Xe       2.13463262       6.80441628       7.17039186       0.04154843       0.01804665      -0.11252452
Cs      15.96739060      15.87188794      11.49918873      -0.00037356      -0.06707069       0.01755985
Ba      10.39147323       8.88847907      15.96557007       0.02865521      -0.03871027       0.02068076
La       7.31623122      11.26025543       7.73129946      -0.08996020       0.02967324       0.10397989
Ce      14.86993953       4.92300071       8.92034140      -0.03238466      -0.10423288       0.02118199
Pr      10.55744882      14.86305816       6.81662246      -0.05403595      -0.00844000      -0.00179969
Nd       0.99577051       3.22620434      15.61662667       0.01699662       0.05518398      -0.04496019
Pm       7.21873534       1.24629071      11.41669349      -0.01512198      -0.03933844      -0.08001286
Sm      13.26724509      15.94692034       3.83315153       0.02970923       0.08534554       0.00517360
Eu       0.46070599      11.08445277      11.89942967      -0.01285889       0.06826538       0.02361565
Gd       3.89536542      14.16222093       0.79627301       0.07308060      -0.07716244      -0.31233162
Tb       5.51478143       3.59701247      13.87236668      -0.00975891       0.14481622       0.07032087
Dy       9.07208518       7.30109826       3.18395785      -0.04823416      -0.02385331       0.06088249
Ho       0.75523417      10.15288051       1.86299300       0.07008286      -0.03166942      -0.10253360
Er       9.12577235       2.22507116       7.41652213       0.03335105       0.02159896      -0.03682198
Tm       4.17856938      16.41533253      14.81053124      -0.09484082      -0.03209710       0.08893190
Yb       6.46091917       5.49797274       0.51808842       0.04184465      -0.00404354       0.07386476
Lu       3.25313756       2.39362098       9.36640095       0.02953429      -0.13695472      -0.06855737
Hf       1.34893930       7.97980643      12.03064353      -0.01302999      -0.15327513      -0.00112671
Ta       8.16527289      12.95224357       4.63374071       0.41818106      -0.02056035      -0.32521072
W        4.43227493       0.55088816       0.62748004      -0.18277344       0.12782529      -0.06135018
Re       6.47976130      11.48342186       5.19924331      -0.02958938      -0.03945690       0.09398687
Os       2.72589626      13.78685365       5.73081927       0.05666292      -0.04563390       0.03766304
Ir      12.69409176      10.08950322       3.06239914       0.00144040       0.01282758      -0.09128802
Pt      11.97732772      13.35869245       5.00136256      -0.00670658       0.02431080       0.02609923
Au       9.17151074      10.30497150      13.31584631      -0.01799635      -0.04668561       0.02719798
Hg       9.00396169      14.07362518      10.76788780       0.02026253      -0.03554834       0.00295267
Tl       4.00898869       1.52901395      12.18292975      -0.01540598       0.04583718      -0.04683627
Pb       3.30946358       5.71091039      12.72574703       0.07208668       0.06862218      -0.09022356
Bi      13.25065263       8.27756527      14.15822292      -0.05140804       0.00925778       0.04235986
Po      16.36122783       5.86120872      12.51553370      -0.01762522       0.02473885       0.06727280
At      14.40149343       2.53838829      11.12795040      -0.05826146       0.00697207       0.03963847
Rn       8.14808813      13.72332349      16.06236782       0.05462645      -0.01430113      -0.04340307
Fr      13.74148049      11.03904783       7.72881221       0.02838995       0.03840544      -0.00634806
Ra      14.61164239      11.76099508      15.18847343      -0.08930817       0.05505539       0.06597640
Ac       7.44313327       6.28597597       8.50311429      -0.09287089       0.11321838      -0.06931481
Th      10.63718253      10.91206858       4.30837069      -0.03967249       0.10999364      -0.04761934
Pa      13.98222143      12.01362406       3.87520763      -0.02303401       0.10953504       0.04974758
U        2.06793195       0.53660005       0.79062463       0.25547418      -0.02071462      -0.03105801
Np       4.53130099       0.98788147       2.69275686       0.06703919       0.03815646      -0.07612532
Pu      16.72956183       0.53783968       1.78401882      -0.15364847      -0.00452531      -0.20596869
Am       7.75355526      16.11979363       5.24106529       0.37330633      -0.21003938      -0.10850248
Cm      15.59740859       6.85744338       9.60009379       0.05965263       0.02607758       0.03393457
Bk      13.30751759       6.14463414      11.90073127       0.06887201       0.05439651      -0.09207587
Cf      14.50791036       8.99088899       0.99103845       0.07244582      -0.05261672      -0.02592081
Es       3.71835599      11.20478167       5.93360335      -0.04257005      -0.05695055       0.02289329
Fm       9.24692370       5.15887855      14.77636861      -0.01353806      -0.02699406       0.00771165
Md       1.42526176       2.03495420       6.50083746       0.00367433      -0.09440371       0.02082275
No       9.66350068       0.70867672       2.41001028       0.08559885      -0.00243834      -0.08737911
