102
Lattice="40 0 0 0 40 0 0 0 40" Properties=species:S:1:pos:R:3:forces:R:3 energy=-513.9041137695312 stress="0.001615495653823018 -0.00014093130448600277 -7.717518201388884e-06 -0.00014093130448600277 0.002939483616501093 0.00011311423440929502 -7.717518201388884e-06 0.00011311423440929502 0.0013277997495606542" pbc="T T T"
H        0.63119109       9.50362954      15.42244858      -0.05512378      -0.08314772      -0.05964017
He       8.11195001       7.71084797      10.89422310      -0.01591298      -0.05649033      -0.06012603
Li       0.25396742       8.05698936      14.93595986      -0.09156349       0.01691629       0.00523372
Be       3.26965332       2.82182793       8.41333780       0.01966582       0.02244808      -0.06941539
B        3.53820970      13.09857096       0.40697422      -0.10815284      -0.13939723       0.02504548
C        7.08806193      11.69200726      10.66814815       0.12508404       0.04194336       0.01530555
N       12.35781636       9.33124151       6.83035348       0.01463500       0.15285701       0.02768449
O       16.30359542       5.50888475       2.54844614       0.04448527      -0.07286933       0.05799840
F        3.79149853       5.53972348       5.37588529       0.13683915       0.06807646       0.10029434
Ne      11.29897461       3.21647763       3.73156248       0.03158250       0.00046313       0.03042371
Na      10.79735603       8.33815760       5.33129697      -0.07232331      -0.07305562      -0.06208055
Mg       5.16185751      11.07575592      10.87951738      -0.02167137      -0.14341536       0.02774931
Al      14.95042135      13.05006751       9.74447308       0.00871317       0.00833865      -0.05012524
Si       4.32176019      14.57027985      16.50758384      -0.01239128       0.15207934      -0.13507234
P       12.88320428       8.91150363       9.95583329      -0.22515160      -0.08923016      -0.25905088
S        4.38848371      12.60709091       4.66808581       0.00496337       0.00189725      -0.02789526
Cl      13.11377251      12.77075567       5.93434095      -0.03006377      -0.04320087       0.00241744
Ar       0.61915214      11.02614851       5.79703729       0.09872006       0.09822576      -0.02868256
K       11.91989531      11.93796093      10.16309836       0.07820562       0.03394062      -0.03060295
Ca      11.59440843       6.66067441      10.34585413       0.03165590      -0.08121844       0.08018607
Sc      10.56436720       0.34734932      13.57340378      -0.14900014       0.13727994       0.16427636
Ti       4.02338844       5.78467621      15.33435364      -0.06823158      -0.03493421      -0.15988690
V       11.34753865       9.09294328       8.06439941       0.08207571      -0.05177338       0.12332815
Cr      11.61159684      15.10917279      14.84663942      -0.01740669      -0.03902385      -0.29805836
Mn       3.18158991       4.83654609       7.88292851       0.14573418       0.08805574       0.09331331
Fe       7.28699347       8.67110234       2.55643227       0.34594634      -0.10510248      -0.07636833
Co       2.71975280       5.58618507       1.12145018       0.03278168       0.07055490      -0.03197664
Ni       2.02325916       5.72552327      11.55776216      -0.00741541      -0.09093399       0.16116250
Cu       8.65649525      12.79654170      15.00727990      -0.00482915       0.05471599       0.00986334
Zn       3.83016232       7.37440300       8.40871629      -0.01812607       0.08669366      -0.01309555
Ga       8.92774790       4.67348741       8.07777562      -0.05504967      -0.03716019      -0.00234963
Ge      13.23944557      13.62251542      14.26017927      -0.04529754       0.03092184      -0.08087593
As       1.43947252       0.69849124       3.73633075       0.04585088       0.01078764       0.06695245
Se      10.79531683       6.62690792       7.89433658       0.00968380      -0.02964908      -0.01232383
Br      11.33594016      12.06799151       2.36287610       0.05477890       0.04697242       0.03469492
Kr       5.98582988      16.07169227       5.14070538       0.09317734       0.00217232      -0.02700052
Rb       4.04093447       2.92492890       4.75646423      -0.00572560       0.00712335      -0.02282239
Sr       2.77541816      11.71279059       2.77895689      -0.01369923       0.00599186       0.04649124
Y        7.33359835      11.38510043      12.85074781      -0.02693494      -0.03975610       0.01734474
Zr      15.50559883      10.11655913       9.98013226       0.06809901       0.11264221       0.15791330
Nb      12.46828832      15.65603258      13.19875257      -0.01469471      -0.16214356       0.17015047
Mo       5.40546064       4.78252983       1.84876275      -0.06619407       0.03724051      -0.18392864
Tc       2.80412681       1.53746480      16.21860468       0.00652183      -0.24275520      -0.25985050
Ru      13.98312415       9.76012360      11.70369449       0.22872593       0.15711683       0.36202246
Rh       7.22137579       8.31644909      16.62716354      -0.15759207      -0.15023583       0.07050357
Pd       6.43442695       1.83994644       1.45893641       0.08367494       0.00050059       0.18277916
Ag       7.96161095       8.89022306       5.07779047      -0.12406832      -0.05980192      -0.12372389
Cd      12.94966210       4.32533062       7.38583637       0.04791009      -0.04369044      -0.01190846
In      16.51550294      13.90097884       3.03207199       0.11999089       0.05480203      -0.02208860
Sn      10.98477929      16.57339207      10.89357116      -0.13183589      -0.04782946      -0.01897113
Sb       4.61969600       0.06749472       1.11210891       0.09913731       0.17317945      -0.02960029
Te       9.42118755      14.03760371       8.05882082      -0.04008320      -0.05781306      -0.10073686
I        8.18144813       2.11559349      14.26605506       0.13453561       0.04124082      -0.05131035
Xe      13.43613941       3.74619193       0.10461987       0.05241466      -0.01437006      -0.06386229
Cs       5.75160631      15.26169964       8.58486875      -0.04966234      -0.09116802       0.04212449
Ba       6.99839400      11.85635858       5.26435274      -0.01663779       0.05710250      -0.10465883
La      15.07334086      11.26748422      12.87104225      -0.17090145      -0.21556610      -0.24504325
Ce       5.75253136       2.86072330      16.20637511      -0.02284065       0.06846008      -0.09259833
Pr       3.88479993       4.15737659       0.50333574      -0.07487744      -0.00231847       0.08463926
Nd       8.28627341      11.32935423       9.35256524      -0.09104174       0.05685195       0.01417196
Pm       2.61226244       8.38719785      11.31777318       0.00344144      -0.02002418      -0.01346543
Sm       0.65475593       2.80406982       1.92792895      -0.10334855       0.13289100      -0.09806167
Eu      13.89080741       7.76958501       7.47724094      -0.16107947       0.14203756      -0.04630413
Gd       7.95822316       0.93243098      10.68749018       0.06602412      -0.26955712       0.21136913
Tb       5.28832476       8.83368147       2.94293541      -0.14742748      -0.10297433      -0.00161515
Dy       5.74444510      11.82591288      16.51533411       0.04186210       0.05582929       0.02391189
Ho       2.48965276       3.40114920      13.78613282       0.06007101      -0.01213757      -0.04343304
Er      13.81915532      12.65316687       3.46315995       0.07209005       0.06574424       0.04047219
Tm       5.62634299       6.47786443       5.89838474      -0.31169724      -0.09608753      -0.02581092
Yb       1.47544185       0.63067419       6.73403268       0.02377666       0.04849495       0.09489623
Lu      11.06432226      11.53989960       6.96113157       0.20079505      -0.18216169      -0.20436405
Hf       1.80775453      10.61087885      10.78584413       0.02003384       0.04710039      -0.00868552
Ta       5.16831213       6.62575093       0.32490498       0.24385726       0.21888362       0.24724215
W        9.56323252       0.00259084       8.75379879       0.23503549      -0.05484944      -0.16828150
Re       0.08067098      12.14526796      10.50314957       0.17386913      -0.20501901       0.16457842
Os       4.88317441      10.23749406      13.48971091       0.00627993       0.10029171       0.04171568
Ir       8.10212154       1.75645069       8.23732889      -0.00786740       0.18148565      -0.03237863
Pt       9.17752489       9.98887245       7.12515054      -0.15593748       0.11404324       0.17350936
Au       4.25910837       2.72853952      10.07724605       0.05505122      -0.07070821       0.19270518
Hg       7.45297734       4.13354704       5.56805666       0.06250702       0.04558752      -0.05254100
Tl       0.89668311       8.28578809       8.74064744      -0.00366135      -0.07223573       0.00056555
Pb      10.74391684       2.41762143       8.29956780       0.04269306      -0.01260749      -0.02817406
Bi       1.24651722       5.60005273      15.66299413       0.00274881      -0.08233139      -0.11096428
Po       8.09953476       3.86561148       1.79825490       0.01949990      -0.28519785      -0.13070139
At       0.19859627      14.49043760      14.46579144       0.01166761       0.02225158      -0.04459819
Rn      13.55241265       0.75366031       3.44218624      -0.02937268      -0.02380506       0.02545764
Fr       5.88493677       5.39775374      11.80502541      -0.04597831       0.19001026       0.02286029
Ra       9.67248988      10.34139689       0.26699937      -0.08312339      -0.04009524      -0.00526462
Ac       2.85310288      12.60963383      14.27650246       0.16850117      -0.07239594       0.07386401
Th       7.55466905       6.66123962       2.46190165      -0.15250106       0.51363438      -0.05515672
Pa       5.88767456       8.70853198      14.75546111      -0.02087505      -0.10647133       0.08732565
U        2.48029249       5.29309871       9.52767818       0.06627092      -0.08062042      -0.20274048
Np       1.05080120       6.22120012       3.31761893      -0.07887921       0.02512871      -0.11968333
Pu       3.07859464      16.46321716      15.24257666      -0.08488366       0.32824636       0.15877193
Am       6.42636520       3.35701264       8.21938110      -0.24082628      -0.02373308      -0.01614512
Cm      10.51991040      13.56927710      12.94608140      -0.05564547       0.05063492       0.11873475
Bk       2.60631751      15.19709287       2.53699226      -0.04978229       0.10414533       0.00239922
Cf       7.71470356       5.87518180      15.58687789      -0.04456817      -0.01651806       0.17246073
Es       1.62685562       6.50947420       5.43707742       0.07024241      -0.08664920       0.06571156
Fm      10.53496492       8.11223057      14.03744257      -0.09453179       0.00637969       0.01565081
Md       0.38325562      14.80180622      11.05973484      -0.04015630      -0.00353348       0.00668740
No       2.13487140       8.47586171       0.25583081       0.02473591      -0.07264911       0.10914015
