102
Lattice="40 0 0 0 40 0 0 0 40" Properties=species:S:1:pos:R:3:forces:R:3 energy=-516.7471923828125 stress="0.001709188800305128 0.0013143052347004414 -0.00038260976725723594 0.0013143052347004414 0.0012325302232056856 -0.0010569547303020954 -0.00038260976725723594 -0.0010569547303020954 0.002195673296228051" pbc="T T T"
H        0.47534248      15.55841469      15.10601308      -0.07654936      -0.06972177      -0.00568692
He       8.16121599       0.05388090       1.11029101      -0.06356347      -0.02722511       0.01857703
Li       5.72370216      12.11754692       8.79424919      -0.04282869      -0.02406250       0.04154444
Be      15.45333022      15.76802617       9.27689550       0.11122403      -0.13609613       0.06687482
B        4.70456899       1.12922492      15.29372313      -0.22132888      -0.35961163      -0.07242903
C       10.19159683      14.56664495       4.97996251       0.24826789      -0.05670194       0.20190378
N       15.13987146      10.58602516       9.93520437       0.25881809      -0.11063015       0.11866502
O       11.46852828      10.77351519      10.47566385       0.00150603      -0.00507871       0.09923189
F       12.23116499       4.04607058       3.32965134      -0.07616207      -0.09486845      -0.02921666
Ne       2.05127138       6.26960071       2.56914248      -0.02553515       0.02755230      -0.00784037
Na       5.82052234       8.45858083      13.97834534       0.04573159       0.00858224       0.00373555
Mg       9.43344044      14.71483508      16.19349074      -0.02698660       0.04861164       0.01128931
Al       2.89932511       6.52267000      13.52653133       0.12833026       0.01950186       0.04146062
Si       1.20512206      12.02023899       8.12357565      -0.10653937      -0.06500220      -0.01330444
P       14.10670043      12.12942475      13.15669595       0.10303938       0.10434259       0.19529077
S       12.83837707      12.45102105       2.79836995       0.13020748      -0.17978409       0.17846937
Cl       5.67346768      11.25566954       0.65514050       0.00522391      -0.01452579      -0.05127269
Ar      12.89706318       8.07347194      12.48759912       0.00094779      -0.02266409       0.05601757
K       15.84932025      11.90598213       2.13096683       0.02914927      -0.09717540       0.04091453
Ca       9.91804405       9.80776133      11.10851893      -0.18960503      -0.01818584      -0.13313949
Sc       3.06626974      10.94973043       3.73867832       0.00584070      -0.03121703      -0.06232205
Ti      16.16285751       7.68756749       6.45059048       0.03693085      -0.01287937       0.06187873
V       12.83814885       3.26549385       2.01845962       0.45184791       0.35338771      -0.50993282
Cr       3.69136690       8.17214446      11.58511488      -0.30445838      -0.26758015       0.27286199
Mn       9.86066544       3.98886352      12.34055995      -0.25848019      -0.11210163      -0.07931113
Fe       4.96300752       0.44183941       4.02385447      -0.12816994      -0.22054556       0.08110841
Co       4.14889010      12.35167556       3.77137717       0.00401828       0.05909204       0.04018195
Ni       7.74123315       3.97734493      13.44366929       0.09055486      -0.16687375      -0.12300194
Cu       4.56038441      14.68800584       4.06488999       0.08918216       0.10693061      -0.00086756
Zn       3.11572748      11.59462388       8.89036901       0.31015113      -0.14672820       0.25498873
Ga       0.77734106       5.03126741       8.40625706      -0.05348956       0.02231930      -0.08638755
Ge      15.59261305       4.93069623      13.92382637       0.00111064       0.10548636       0.28527898
As       5.46150890       4.22440082       1.93185907      -0.02347003       0.06835045       0.22922024
Se       4.89350944       6.98951310       9.85794439      -0.02640691      -0.07985292      -0.10301894
Br       8.74532924       2.43719920      16.51831272      -0.09432136      -0.00639798      -0.02422024
Kr      10.34190934       8.54965525       2.67756295       0.07606155      -0.06391351      -0.00026451
Rb      11.32997220      15.53920660       8.02173730       0.05902779       0.01620430       0.01143948
Sr       4.96705072      13.17533794      14.93839749      -0.03325489      -0.09943584      -0.03632418
Y        7.18916163      12.71240009       2.12517072      -0.02767030       0.08670139       0.12983671
Zr       4.55075607      11.65741841      11.78646177      -0.02676630      -0.00791895       0.01869540
Nb       9.67410325      16.15050744       4.23504730      -0.03324001       0.26116332      -0.12536582
Mo      14.34990332       5.23625549       0.91462319      -0.06896643      -0.31796747      -0.08132488
Tc      14.61199599       2.62414897      14.00668579      -0.52084064      -0.17268722      -0.22878684
Ru       6.31765400      12.95291466       4.59401609       0.66934443       0.40364677       0.20853558
Rh       6.74260146      11.33884524      13.57863541       0.02415777       0.02764264       0.00673775
Pd       1.36528119      11.37809559       5.77427222      -0.00192379      -0.11299648       0.08118340
Ag      16.36301410       1.18566079      12.43926710       0.00350493       0.04643533      -0.00077263
Cd      15.13991498      10.82646487      15.14466749       0.03839109      -0.11013731      -0.09801225
In       1.13346056       9.20322191      12.52389458      -0.04933256      -0.02709359       0.05227434
Sn       7.09231108      11.13434295      10.91144388       0.13012694      -0.00603429      -0.07376572
Sb      14.74229766       9.91332990       6.03905664       0.00780007      -0.06783047       0.07347126
Te      12.36766390      15.24024239       0.13884226       0.01327356       0.04178396      -0.12435567
I       12.13532888      15.81686209      12.03886220      -0.07152450       0.01945177      -0.02230483
Xe       8.42069658       7.67759546       5.85973305       0.01882121       0.03340179       0.04090190
Cs       8.29863960      14.80719749      11.46649675       0.04266775      -0.05209532       0.02426225
Ba       3.03485747       7.87743420       7.63272557       0.05512156       0.07059267      -0.09628928
La       1.94842941      16.29051257      13.64879811       0.15111820      -0.02537670       0.01529220
Ce       7.95398094      11.29695604      15.32566896      -0.09093226       0.04847614      -0.07217234
Pr      12.99164037       2.30892786      12.65752740       0.47481894       0.14233229       0.31354067
Nd       5.41287011       2.18334591       3.57761370      -0.23433475      -0.49968565      -0.39581949
Pm      13.64217486       3.35929898      16.35042031       0.01518403       0.06864509       0.17377459
Sm       5.47631366       5.41541948      12.09981792      -0.12507857       0.05409876      -0.09576713
Eu       5.37303573       3.59158216      15.68029700      -0.03544435       0.37738100       0.29089540
Gd       0.34997883       6.62205787      11.06757293       0.06793333       0.05393462      -0.02346051
Tb      12.21575055      12.16299448      15.10111485       0.04106859       0.18501967       0.09704775
Dy       1.64470999       3.77049951      13.11849175      -0.06558990      -0.04420682      -0.04427693
Ho      13.23973840      11.27579517      10.94943734      -0.24155916       0.04379617      -0.03360836
Er      12.20839213      11.08703215       5.02964297       0.08557974       0.04379162      -0.04702875
Tm       2.45763116       8.61356625      15.68066864      -0.05755181       0.00603104       0.10088547
Yb      14.87268309      15.96212461      14.76633428      -0.05387845       0.06053531      -0.10150885
Lu      10.80549675      14.03839287       2.80811263      -0.04244183       0.00483529      -0.17456639
Hf      16.30685595       9.77735048       8.53640156      -0.22127628       0.41669101       0.00998746
Ta      11.83266669      12.70579258       0.72840681      -0.13989238      -0.20062870      -0.31259039
W        0.48351547       6.93985696      14.02461318      -0.22941278       0.06371621      -0.02230027
Re      16.34834867       8.43383729      15.62669584       0.08979811      -0.36250579      -0.09273610
Os      16.53769313       7.25992840       8.47017073       0.10886414      -0.33074862      -0.07921427
Ir       4.47933449      16.03676230      14.58336881      -0.01954717       0.29470322       0.11549129
Pt       9.39400629      12.58339481       0.53747379       0.27092421      -0.00559395      -0.05477718
Au       1.38868426       8.81577365       4.96217560      -0.00876706       0.12778008       0.02020483
Hg      10.07323812       2.52984661       8.40305070       0.10090969      -0.03027457       0.02598033
Tl      11.68277716       0.65164248       2.54097989       0.13027480       0.18422762      -0.04091378
Pb      11.71249871       4.79710863      10.73381089       0.02571583      -0.08822155       0.04338665
Bi       4.15263758      14.59442344      12.06435136      -0.06083840       0.09353162       0.05276300
Po       8.22394649       1.68069731       5.07896904       0.03207049       0.00217538       0.03316781
At       9.96301200       9.11765912      14.32145077       0.04322894      -0.03097153      -0.01242987
Rn      15.68220458       0.73833760       5.03186565      -0.00728937      -0.03238086      -0.00197649
Fr      10.01394089       5.66995848      16.08648625      -0.03590570      -0.09852381      -0.01165097
Ra       3.50832330      15.77696197       1.09640343      -0.01391676       0.15850350       0.04170749
Ac       4.03796964       0.96418373       6.09020522      -0.00471868      -0.01439555      -0.10420348
Th       3.35022807      13.00097443       6.00821080      -0.10200645      -0.04164848       0.08413394
Pa       8.14129874      14.12536368       5.10057478      -0.96279383      -0.46581358      -0.12154568
U       15.96141562      11.50911706      11.40722191       0.05176005       0.07592481      -0.26063454
Np       8.03515423       1.81689667      13.89982776      -0.06474924       0.03022322      -0.15104979
Pu       4.65243830       9.59813339      10.91468966       0.18071970       0.26234815      -0.17934290
Am       6.21427938       0.92292876      13.61912424       0.21051446      -0.06286291      -0.02492315
Cm       8.77122829       4.02399216      10.82305812       0.19356008      -0.00205644       0.17116883
Bk       6.01008779       3.98232642       4.52142209       0.16934784       0.52785349       0.15830784
Cf      15.46373108       6.84033232       0.21885165      -0.15265399      -0.01169023      -0.01965025
Es      15.73627184      12.72085263       6.69815251      -0.09180166       0.22621804      -0.07295908
Fm      13.71894169       6.83397425       8.36176959       0.13981152       0.12221558       0.10995010
Md       1.63027557      13.96268807      10.07697098      -0.04538218       0.11601655      -0.04508432
No       7.16264267       2.31123715       7.94677752      -0.11440619      -0.01098013      -0.01880771
