102
Lattice="40 0 0 0 40 0 0 0 40" Properties=species:S:1:pos:R:3:forces:R:3 energy=-514.038330078125 stress="0.0027619018219411373 0.0004117620119359344 0.00031946990930009633 0.0004117620119359344 0.0014411283191293478 0.0004344705230323598 0.00031946990930009633 0.0004344705230323598 0.0010780825978145003" pbc="T T T"
H       11.82813455      14.02545547      10.24113381      -0.07412229       0.02811048      -0.02902983
He       0.42459483      11.49487915       5.70549020      -0.02386772      -0.05145280       0.02659858
Li       8.96051924      11.42673934       0.88947762      -0.08139521       0.00283000      -0.08012564
Be       2.45017705       6.73187275       7.94048235       0.05596006       0.00168122       0.08000083
B        9.29021231      12.65536490      15.87260231      -0.13415551       0.22821142       0.15775441
C        9.41774140      13.27317359      11.57422789       0.08236916       0.02132951      -0.16699398
N        1.42709495      12.50226581       8.86203181       0.10589319       0.16254966       0.02540562
O       10.91043040       1.62711219       6.95891728       0.04375958       0.05933561      -0.00723162
F        2.25173677      14.08102832      14.40038803      -0.03968131       0.00677279      -0.05355323
Ne       0.63849864      13.59749833       4.39495903       0.03004513       0.01698267       0.04713382
Na       8.77969959      15.18791227      13.69251225       0.06756230       0.02970940       0.04726107
Mg       9.85075917      14.26634292       0.65289727       0.12314112      -0.03841427      -0.10610160
Al       0.07434602      13.42098135       0.55757542      -0.02357246       0.05507007       0.04846923
Si       3.49535874      14.72545792       9.69278248      -0.04055455      -0.00528012       0.03565226
P        6.50674057       0.25745453       2.85831886       0.05374255       0.14207558       0.16144121
S        2.97099009       1.44615942      13.47317699      -0.22405344       0.07897829       0.02274148
Cl      12.87774534      14.35672865       2.98031439      -0.03787747       0.07151520      -0.05337607
Ar       5.34692702       3.15584554       7.75680521      -0.08381908      -0.00821679      -0.02989399
K       16.47012951      13.71115792      10.25439825       0.09317355       0.02741491       0.01415549
Ca      12.02775928       6.58702298      14.10320458      -0.01718524       0.01396814       0.05538957
Sc      14.09757112       4.40799507      11.32119940       0.03732233       0.22931957      -0.05958901
Ti       1.88342672       1.34411004      11.11654247      -0.05385387      -0.07030020      -0.00747281
V        0.14358801       5.37470060       3.72069388      -0.17492907       0.10836962       0.08610709
Cr      16.34925766       5.47240086       5.74971692       0.09142432       0.06568417       0.14989677
Mn       2.21728991       6.24127746       5.99595697      -0.15754469      -0.11243886      -0.12117827
Fe      14.74683532       4.52625455       4.22493644       0.02055316      -0.00881508      -0.06701019
Co       4.78697206      14.02146056       2.71993287      -0.07176761       0.11786447      -0.03325085
Ni       7.81213005      12.82371184      10.71325380       0.02591217       0.07609028       0.17136930
Cu       9.70208372       6.43189039      15.38128851       0.02190246      -0.04009129       0.00202935
Zn       1.94291286       9.05505768       0.07453845      -0.01517681       0.08576018      -0.08036549
Ga       8.80946197       3.31318411       1.98224662       0.02781957      -0.00726226      -0.08481268
Ge      10.26051948       3.00072131       3.81212280       0.10728256       0.07937306      -0.02942985
As      13.99934258       5.35467594       6.40912050       0.01472723       0.00244482       0.15398148
Se       0.76565108       1.03979239       0.47638090      -0.23173422       0.04865572      -0.03960415
Br       6.65158884       0.64425037      14.21694949       0.06791767      -0.16440940      -0.08084472
Kr       8.40662691       8.61522575       4.33421281      -0.02574380       0.01918192      -0.01479660
Rb       6.41017425       5.00506788       0.43078839      -0.05685807       0.01199455      -0.06923443
Sr       0.33962731       6.13390487       0.74353684      -0.05616365       0.01441546      -0.11112291
Y       14.44870041       7.39239363       4.62285933       0.03302562       0.05519384       0.03183084
Zr       8.68566556      16.24561865       9.00358802       0.20118698      -0.16163909       0.32182592
Nb      12.74756141      10.59037954       4.62943106      -0.00935592      -0.01568764      -0.13583528
Mo       3.00492993      12.54925755       9.00528271       0.06553110       0.22557756       0.07737562
Tc       6.94083306      10.99058850       9.53560669      -0.14305414      -0.11508606      -0.01742339
Ru       8.24240687       1.72601151       3.63850317      -0.19054605       0.05326418      -0.06736541
Rh       4.64709835      15.43324601       6.00956481       0.20043385      -0.16496792      -0.29181480
Pd      14.91725132      13.30595594       1.64758384       0.02815697       0.03241695       0.02284582
Ag      14.68219535       5.19136168      13.96353044       0.03949372      -0.07308011      -0.02687669
Cd       5.04888103       2.47786921       3.36249407      -0.02851510      -0.03147805       0.08339980
In      13.58530387      16.54457370      12.45262541      -0.11483850      -0.09025818       0.08949675
Sn      13.26723211      10.34914098       7.17151396       0.15394688      -0.07039543      -0.02186237
Sb       6.90015196      12.67708443       2.23159971       0.01412783      -0.08059238       0.02845594
Te       8.05508878      14.73929561       6.39946452       0.02603667       0.05580312       0.07030267
I       13.31308358       9.03647289       2.19894719       0.00321143       0.02980853       0.01555254
Xe       8.67050163       5.85460454       7.19029469       0.05425802      -0.03092417      -0.09642518
Cs       2.13394990      11.17386972       3.43941016      -0.03733017       0.03091821      -0.04598449
Ba       8.25493432      11.46794370      13.61337759       0.07223834      -0.01558413       0.02460517
La       9.81133115       3.03825067      10.45157471      -0.06728181      -0.04425658       0.02667481
Ce       2.33669320      15.72955424      15.93138024       0.00289263       0.15817420      -0.00735378
Pr       8.43977488       9.62675090       9.97033474       0.05664977       0.01915269      -0.03359644
Nd      12.24037694       2.78813826       5.92994213       0.04324272      -0.04822458       0.08503819
Pm       6.18221539      15.11736140       0.02198217      -0.13698269       0.23834968       0.00683517
Sm       8.87551151       1.15365002       5.67185528      -0.09444371      -0.06369582       0.08072525
Eu      15.24501312       2.08604094      13.92516908       0.14241335       0.01458251       0.02511013
Gd       5.46544723       8.45874972      11.39164937      -0.03492006       0.01228590       0.04389465
Tb       6.02636663      14.84372210      10.81840592       0.12014402       0.08913252       0.16906075
Dy      13.07627143       7.36466482       8.56149683      -0.05518688      -0.01760156       0.10465005
Ho       1.93541229       7.22246174      10.47271829       0.03257228      -0.13323906       0.02183697
Er       4.76378114       5.01410689      10.72920814      -0.03667744       0.08545588      -0.06517592
Tm       0.74008584       2.36944816       3.01968653       0.10701085       0.00342598      -0.12075678
Yb       8.50611678       6.34452439      12.70649208       0.04376779       0.07898717      -0.05946365
Lu       5.06244740       1.50000252      12.26876450       0.09771729       0.00481614       0.02872171
Hf       4.24845467      16.57186515       2.19816774      -0.02941155       0.09862947      -0.01526121
Ta       7.71263884      13.53337111      16.53212562       0.39741439      -0.39400417      -0.10466650
W        0.49649279       7.36160819       5.41243486       0.07237530      -0.14090264      -0.14426555
Re      10.33821227       1.59025530       8.81513037       0.06786440       0.17062190      -0.18513159
Os       3.54191709      14.70618938       0.76903190       0.00328007      -0.18481568       0.09697700
Ir      14.62271489       2.03388262      11.18187753       0.03128982      -0.15574482       0.14180978
Pt       4.27198057       0.02648572      10.31581202      -0.19651181      -0.01240288      -0.01937508
Au      16.45643287       5.17279770      10.23003047      -0.00353502       0.01045463      -0.04210981
Hg      14.49472830       3.62444197       0.65817873       0.02917144       0.07811763      -0.00304230
Tl      10.76394956      11.64636284       6.37784519      -0.01720980      -0.02370152       0.01314570
Pb      11.50491848       6.22178433      11.11145789      -0.02119956      -0.14351419      -0.04697174
Bi       4.08751875      12.70147739       6.54153582       0.08004604      -0.01064387      -0.10129032
Po      14.64233138       1.80946019       3.91415168       0.03936365      -0.13024613      -0.02892294
At       2.90818790       4.76060665      16.16470262      -0.02989739       0.01907831      -0.03047782
Rn      15.36898867      15.47489392       6.78251992       0.01362820       0.00702293       0.07063565
Fr      13.15563257      12.98092066      15.38860684      -0.00217261      -0.00065073       0.02552150
Ra       4.64997537       9.16016865       7.67987397      -0.06084599       0.02710004      -0.09700114
Ac       1.57572664       3.93765596      12.91720465      -0.06701399       0.04825808       0.03068607
Th       9.07374586      12.85430647       8.72926241      -0.00153575       0.06639322       0.10356243
Pa      11.38006775      16.48781834      10.26688247      -0.34931546      -0.31618482      -0.10055214
U        5.66130397      14.70346826       4.30635777      -0.23436727      -0.04258721       0.21160710
Np       0.24120754       2.46304020      10.86455168      -0.01337793      -0.18232264       0.16233101
Pu       2.09855003       5.31528031       4.31897579       0.30387595       0.09742531       0.31917793
Am      13.09946361      12.56416854       4.69241368       0.06373713      -0.19923538       0.09638161
Cm       9.81936570      14.77772321      10.39533539      -0.02535067       0.03146335      -0.08951775
Bk       5.86549360      14.14037372       8.51572425      -0.08777377      -0.17382541      -0.21708898
Cf      12.74081070       4.10927518       4.21755842      -0.10894789       0.03535689      -0.19519570
Es      11.40724235      12.21878175      11.33423611      -0.04621980      -0.03641956      -0.12083483
Fm      16.37302030       6.91379467       7.96854391      -0.02734768       0.03613865      -0.07339503
Md      15.44254512      15.91865924       1.56623804       0.09188825       0.06966981      -0.02225976
No       2.45253799      12.42333319      15.82447237       0.09272145       0.02182962       0.03685059
