102
Lattice="40 0 0 0 40 0 0 0 40" Properties=species:S:1:pos:R:3:forces:R:3 energy=-515.9789428710938 stress="0.0015982786426320672 -0.00026221312873531133 -0.0005182884633541107 -0.00026221312873531133 0.0020603532902896404 4.549510413198732e-05 -0.0005182884633541107 4.549510413198732e-05 0.0012296730419620872" pbc="T T T"
H       15.66295180       6.34129268      10.66041572       0.02877133       0.05565330       0.01470573
He       5.32585053      15.80982857       0.56905645       0.04293052       0.00407028      -0.03191180
Li      13.64048650      15.12730634       7.17514858       0.11480173      -0.15532921      -0.12520364
Be       6.56227773      10.93091780       2.82292297      -0.04170141       0.13939385       0.12264806
B       13.88006717      11.86795372       3.04726325       0.19158193       0.07201053      -0.09634885
C        9.33519366       9.30034488      15.46107462      -0.11144772       0.07838289      -0.16868056
N       10.58274879       2.86896992       4.67998261      -0.33729851      -0.22820482       0.18711211
O       11.01458222      12.20209662       2.07118814       0.29798368      -0.09377556      -0.20945373
F        3.74512609      10.48716184      13.18055044       0.19811791       0.07211252       0.05286549
Ne       5.98514724       6.21561628      11.90438221      -0.00639629      -0.00064366       0.01649621
Na       8.13076806       0.20241773       3.77140831      -0.00860029      -0.02348353       0.04499303
Mg      15.60893031      12.49782976       9.12662314      -0.02478313      -0.02228807       0.01297247
Al      15.19252760      14.19132269       0.70269251      -0.03540355      -0.10695554       0.00000152
Si       6.58601534       2.32413512       4.30097268      -0.47899270       0.19345894       0.16340432
P        0.13631640       9.46773310       3.63510277       0.10407685      -0.01544939      -0.11145253
S        9.39292404       1.88197998      15.01502579      -0.06607107      -0.06163850      -0.13500130
Cl      13.37529504       1.05910465      15.15923899       0.06737153       0.11537553      -0.02990375
Ar      12.88754802       8.58723027       0.70636736      -0.05760818      -0.17058316       0.01714822
K        5.73108127       9.12743671      10.30179505       0.07302140       0.01134851      -0.08969890
Ca       0.37299031       6.74599738      14.39813633      -0.24100071       0.14392516       0.04224570
Sc       3.15411478      12.98698461      10.98420501       0.16663399       0.08993185       0.01509662
Ti      12.65764708       5.76215241       7.59340011      -0.12281384       0.05571218       0.11128835
V       14.90367196      10.82116548       4.17754387      -0.02043743       0.10629638       0.04716638
Cr      13.36844985      12.53286933       1.28958491       0.29602188      -0.34371859      -0.01294215
Mn       6.32308484       0.67952277      12.58070634       0.49668548      -0.03352658       0.06278288
Fe      12.25370382       8.58549107       8.91123488      -0.09994298      -0.04806164      -0.14312091
Co       7.11005305       7.37414633       2.72111079       0.16947879      -0.03657764       0.09817985
Ni       5.84617069      10.41431149       1.14073178       0.26534125      -0.16199447       0.11357513
Cu       6.45100649      15.21063917      11.36298890       0.13486746       0.03677770      -0.00235403
Zn       2.44238635       2.18314800       5.96611449      -0.06123757       0.11949662       0.06748306
Ga      11.55801896       4.03901334       3.97023750       0.22695103       0.31934044      -0.17721052
Ge       9.49655035       8.10086412       2.04989304      -0.04558288      -0.08051055       0.09769341
As      10.11752261      11.18346699       6.34843311       0.01764618       0.16900524      -0.32442766
Se       2.89262860       6.38353868       2.73951231       0.09921262       0.03587984      -0.11233820
Br       3.14818106       3.08727990      10.35527673      -0.07167861       0.06647299       0.03183225
Kr       4.10154647      13.74428074       4.65122412      -0.00628882       0.05746267       0.04613923
Rb       4.35911270       8.11312016      14.42872132       0.03493777      -0.04811357       0.00469654
Sr      15.57720805       8.11600668       9.44139433      -0.00914075       0.06194709       0.06219282
Y       11.64725052      11.70473499       3.80553934      -0.13138488      -0.13105187       0.17626335
Zr      10.85152336      10.17889630      10.01855843       0.23850220      -0.13090369       0.03440052
Nb      10.25946943      11.66015884       8.65368606      -0.24391216       0.25115001       0.12347680
Mo      12.65429277      13.07508877      14.96706587      -0.08300352      -0.32998335       0.00968798
Tc      16.01724619      10.48561040      16.24354012       0.52769703      -0.36944738      -0.56797338
Ru      11.30980249       2.18605821      11.57038067       0.00655713       0.11955803       0.12044549
Rh       5.18004442      13.10251589      11.01598794       0.02405746      -0.09074166      -0.00527330
Pd      10.34128672       9.19397716       4.25003936      -0.11595503      -0.12075743      -0.06065930
Ag      11.18872405       6.30437587       5.36918495      -0.12521428      -0.04097113      -0.24698903
Cd       8.18500251      12.00997208       4.61682380      -0.10523481      -0.06557165      -0.03760464
In      10.89458059      16.13844730      11.67782457       0.03772917      -0.13113266       0.00146561
Sn       0.78148552      11.52745806      10.84518148      -0.18481283      -0.12543178      -0.05127478
Sb      12.35711395       5.59636871      13.55591449       0.07740586       0.02534854      -0.11518267
Te      15.11633023      12.36695180       6.47874696      -0.13596760       0.17494415       0.04069102
I        7.80900899       5.26838360       8.55828243      -0.18258381       0.03166202      -0.02548539
Xe      15.85519640       0.47734523      10.60447807       0.06981134      -0.02015631       0.01262384
Cs       1.80977534      10.92118421       7.11002640       0.02085462       0.05884017      -0.05587616
Ba      14.50227275       4.41521473      11.10316357      -0.02769681      -0.06331554       0.18309011
La      10.03348888      11.07756288       0.49120665       0.05708417       0.21407454       0.01896194
Ce       4.01023361       3.64841069       3.32621006       0.16131948      -0.16049731       0.26557091
Pr       8.01599941      12.96638356      10.21293311      -0.08542311       0.02033260       0.00968550
Nd      15.38699639       7.22837080       5.42025821       0.05692386       0.04609621       0.01537360
Pm      11.50509388       2.49012765      13.55232458       0.03283279       0.05013577      -0.30669028
Sm      11.23972481       6.72802738      10.50013208       0.11738440       0.17256232       0.53760087
Eu       6.11119314      12.65486131      13.29491902      -0.09941313      -0.12497166      -0.16573676
Gd       7.68282319       8.68226142      16.39762076       0.01145965      -0.07878575       0.09593485
Tb       9.49088945      13.24003050      11.83774393      -0.11737221      -0.08173104      -0.11683811
Dy      12.67198770       2.38351808       6.06151530      -0.01235242       0.20701060       0.08642945
Ho       1.13756078       8.32255101       1.47258613       0.08118939      -0.05167161       0.12087551
Er       2.29896704       8.12472236       4.72518747      -0.07199496       0.04621547       0.08744819
Tm      16.42962273       1.66598331       4.81123359      -0.03867941      -0.07083656      -0.07507689
Yb       1.48487173      12.35622869       0.99544879      -0.18660611       0.09513702       0.01093337
Lu      12.75350309      10.76899060       7.63572003      -0.03821310      -0.10027909       0.06834121
Hf       8.04465400       9.49279348       3.45388476       0.09090523      -0.14691147      -0.00610546
Ta      13.58638406       5.31057526       4.78917427       0.14442369      -0.11433777      -0.00421706
W       14.85512947      12.58251207      15.48987596      -0.00910115      -0.16568647       0.10079256
Re       1.44344793       9.06262396      15.47869094      -0.11191922       0.09918472       0.16803905
Os      14.62127679       4.93659833       6.71303650      -0.11985392      -0.05663304      -0.03730081
Ir       4.55844456       2.84196490       5.30959681       0.27627450       0.11112949      -0.42936715
Pt       0.79249061       7.57065582       6.93431896       0.05498706       0.03938111       0.04601614
Au      14.89600039       3.58406834       3.53619213      -0.19343190       0.05334279       0.03563422
Hg       5.46811776       5.85753209       0.36452614       0.12016952      -0.05865305      -0.00623627
Tl       4.22086704      15.54464554       9.44055513       0.09207381      -0.02115592       0.10088984
Pb      11.86581082       3.66407066       9.27352150      -0.01650324      -0.10675028      -0.11724618
Bi       3.49260563      10.14665594       0.84644233      -0.09735867      -0.05948901      -0.08499914
Po      13.01740673       9.06994427       4.91123408      -0.01433359      -0.06761144       0.03998430
At       2.03653641       1.13717091       2.35124133       0.06773095       0.10784757      -0.07870345
Rn       8.38076127      15.76857424       7.41630593       0.02594129       0.04799750      -0.11493046
Fr       3.14918326       1.13425468      13.25231110      -0.00691289       0.00676990       0.05172686
Ra       5.32774174       2.80834515       8.14790594       0.04334582      -0.10729271       0.06088145
Ac      14.00487000      11.94019176      12.29315483      -0.05328891       0.03855139      -0.16771749
Th       1.61218654      10.55351282      13.77321186      -0.04923862       0.01967345      -0.03653003
Pa       8.11301303       0.67441112      13.21646505      -0.48219538       0.11889115      -0.22638313
U        5.61583770       8.42700590       2.18704620      -0.14116421       0.13340847      -0.10139565
Np      10.53773259       6.73459881       8.22771551       0.02819718      -0.56174415       0.23494542
Pu      13.26393271      15.02754692      15.34131863       0.17763470       0.27554220       0.03535600
Am      14.79896404      11.09003951       1.23490794      -0.76196384       0.59325469       0.65190309
Cm      15.29373424      13.72789136       3.53055329      -0.19121552      -0.06164436       0.05405807
Bk      10.66782106       8.52399358       7.18155337       0.09574756       0.52704334      -0.05849832
Cf      10.61625196      13.30850258      13.70768394       0.05318209       0.10402955       0.04800914
Es       8.79469031       3.78154368       4.84473696       0.13885319      -0.04821819      -0.00277607
Fm       0.74883000       4.86583507       7.31180111       0.05478162      -0.10837695      -0.08362296
Md      10.48278348       7.39284929      15.45798749       0.04707455      -0.19467354      -0.01626127
No       9.31984665       9.77861230      13.03704252       0.02216341       0.00510082       0.09274474
