102
Lattice="40 0 0 0 40 0 0 0 40" Properties=species:S:1:pos:R:3:forces:R:3 energy=-513.1453247070312 stress="0.0016983456443995237 -0.00018362541595706716 0.00038272564415819943 -0.00018362541595706716 0.0013448222307488322 -0.0004255629319231957 0.00038272564415819943 -0.0004255629319231957 0.0024355612695217133" pbc="T T T"
H       14.61062264      10.38957432       5.90526424       0.00300108       0.03497121      -0.00413517
He       3.06461581      13.32761838      11.21717023       0.03108323       0.02470024      -0.00945020
Li      10.48213009      11.76488033       4.10233578      -0.03985851       0.12110662       0.09059078
Be      10.92689924       0.94575653       8.60738084      -0.06105690      -0.16726552      -0.09162414
B        3.27386160       8.09212155      14.42501275      -0.07022578       0.26358733      -0.03214120
C        5.53434944       6.55635589       4.96535679      -0.22498548      -0.17079878       0.46413824
N        9.51748745       0.09865656      14.15710627       0.12524654       0.19584295       0.19244762
O        9.77256858      13.72746413       5.98480923       0.02136816      -0.38904566      -0.23113480
F       11.20507003       8.74220462      14.52338630       0.20073055      -0.39758515       0.13251477
Ne       2.62057569      16.42686293       1.99502801      -0.05133778      -0.13342786      -0.01330073
Na       3.08263799       3.48784234       7.70629196      -0.08339888      -0.03317078      -0.12994590
Mg       2.28503163       6.20072654       2.82084028       0.06306513      -0.13582814      -0.06287357
Al       9.26871948      12.24500699      10.48580301       0.03752565       0.23174942       0.05728680
Si      12.41195814       0.32538284       0.35933055       0.05105934      -0.02293804       0.06356748
P       15.97659110       0.76179976       2.90565725       0.10368513      -0.24977949      -0.02472412
S       15.91184092       7.58500769       9.82873353       0.07104048       0.10533145       0.11697237
Cl      16.35944544      11.19808600       0.15805091       0.01256658       0.12326050       0.10602017
Ar       7.51186568       3.01511322       0.81763155       0.02437351      -0.07419775      -0.00187449
K       10.61595395       3.80843919       5.77457884      -0.05102391      -0.01344741      -0.05479322
Ca       2.45469606       7.75462440       6.06810488       0.11258553       0.02488273      -0.03598366
Sc      10.45224226       1.61657618      14.45546743      -0.03760284      -0.28294462       0.09196040
Ti      13.57879861       1.97648768      15.83002945       0.10000736       0.00409057       0.41535887
V       12.12230219      15.74912464       7.93851226      -0.10609182      -0.15431809       0.04419307
Cr      16.03653272       6.95486742       5.30971234      -0.07760029       0.08712673      -0.06931730
Mn       2.57872759       6.17410016       8.73624739       0.09506811       0.01758164      -0.29225188
Fe       3.32751262       7.03471711      15.57757006       0.04020423       0.01340237       0.29607809
Co      10.34334581      13.35570703       2.34110234      -0.15711653      -0.20690295       0.08134378
Ni       8.65105231      12.78790233      12.62425309       0.05341245       0.21611856      -0.03171656
Cu      13.50920103       3.00492563       2.73727056      -0.05582319       0.13373733       0.12351880
Zn       2.71860545       7.74252238      12.73850721       0.00713497      -0.02759661      -0.16593514
Ga       8.71271951      12.65318868      14.91655459       0.04792170       0.11400408      -0.03905563
Ge       2.21821408      13.64928436       6.99537115      -0.05094613       0.00999847       0.07983644
As       0.04125484      12.90281420       3.74345709       0.02419070       0.09866630      -0.01765507
Se      12.32927745       7.07214570       9.76526436      -0.07467066       0.02083084       0.08049218
Br       5.21185156       0.53471518      10.82425927      -0.07916035       0.05648699      -0.02892410
Kr      14.10596508      11.34705979      13.37119312       0.00358070       0.05508119      -0.04642129
Rb      14.99541289       2.23709738      11.37501336       0.00939529       0.01920446       0.02929315
Sr       2.09214795       4.37856075      14.81658778       0.06601886       0.06229296       0.06539696
Y        5.24465252       6.93394113      14.42301779       0.19270374      -0.05573435       0.04210755
Zr      11.80368351      13.90552026      10.08919663      -0.28136277       0.25897965      -0.01768658
Nb       0.16916445      14.38715976       5.83208929       0.13418600       0.08122367       0.02938566
Mo      16.32688439       5.75418151      13.21016810      -0.14058024       0.20538741      -0.27857485
Tc       2.49519207      15.86810756       6.16400235      -0.31060210      -0.18120186      -0.04932681
Ru       0.46758982       7.29688898      11.97616062      -0.02110420      -0.10700741       0.13961627
Rh       4.62530088       8.11676468      11.38799059      -0.03205023      -0.00255406       0.14204285
Pd      14.28065413      15.59835026      11.88848312      -0.21976547      -0.05599600       0.00276282
Ag       8.31909675      10.30099600       9.88438168      -0.04887323      -0.04297118      -0.06236363
Cd       4.25061675       5.87225903       0.97219284       0.02002121      -0.05066650       0.06475399
In       0.12387857       0.07588252      16.18459047      -0.00385514       0.05188358      -0.10652597
Sn      14.61966700       6.25038122      15.06590699      -0.07143369      -0.01331026      -0.00036982
Sb      13.26856457      16.28209560       9.88787580      -0.01201537       0.18125017       0.02334696
Te       5.23790437       2.13658584       6.17276529       0.05124329      -0.02009878       0.01152677
I        0.35358060       2.78256961       8.46909241      -0.03225752       0.02916937       0.04889209
Xe       6.52109966      11.10880730       5.97332826      -0.01183950      -0.05775187      -0.00144463
Cs       6.81300270      16.45373684      15.66325132      -0.01200494      -0.03419895      -0.05570431
Ba       6.01709669      11.09908470      12.10415699       0.14153974       0.04545866       0.07313514
La      16.45288092      11.78324538       6.44190735       0.04975855       0.06251090       0.03092182
Ce      10.71338487      15.12362168       4.97748225       0.06741480      -0.03520671      -0.29935527
Pr      16.23193553      13.86780570       1.19706464      -0.19985896       0.06532906       0.15330803
Nd       1.69688866       5.98120220      10.30513790      -0.36334020      -0.13235277       0.37438306
Pm       9.14171653      15.16662765      12.80741872       0.13758312      -0.10216049      -0.02884692
Sm       1.41734225      15.70002583       4.37848910      -0.25909325       0.18474017      -0.19600683
Eu      14.92039483       8.37243410       5.51954873       0.09611859      -0.09077397       0.03063653
Gd       1.80041626       9.16197508      10.06120977      -0.23191118      -0.17804515      -0.03414531
Tb       5.51171772       5.89261542       7.17597410      -0.00425605       0.10274710      -0.17052214
Dy       5.41774883       4.35767330       3.69375028       0.18864052       0.16257292       0.05267704
Ho       0.86399200       8.27324996      14.63758796      -0.12262216      -0.08465660       0.02908705
Er      16.45537478      10.21434970       2.73966479      -0.02773502       0.09306258      -0.14953639
Tm       8.00358933       1.32472380       7.58865169       0.09092366       0.06605445       0.07451227
Yb       5.30909848       3.36644273      12.13279964      -0.02667849      -0.02083796      -0.06310949
Lu       9.40508331      14.56828291       7.71366517      -0.04787757      -0.12109302       0.55752581
Hf       9.73211861      11.41122733       0.68138412      -0.01709540       0.03143236       0.00904959
Ta       3.72208521       7.76946325       9.23831679       0.08690503       0.27470222      -0.21222004
W        6.33096873       7.65301873       1.46133896      -0.05313370       0.07157183      -0.18128198
Re       9.60315153      14.57253589      10.67195756       0.18489897      -0.29016364      -0.08265889
Os      10.72755982      16.10853743      15.82777140       0.05096982       0.43517652      -0.36653477
Ir      10.36820240       0.17407399       6.80686293       0.07165421       0.20605071       0.29660615
Pt       0.92696144       7.91329064       3.71645448      -0.12141393       0.11029567       0.14762215
Au      11.49801270       7.52632275       2.06348710      -0.06195813       0.02879212      -0.00067174
Hg       7.89093220       8.42092816      11.83868069       0.01032617      -0.01234728       0.06628197
Tl      12.52018981       0.65629635       3.34104537       0.01342574       0.04707155      -0.03587266
Pb      14.21299187      14.68973905       6.94177916       0.17996764      -0.10533992      -0.08609844
Bi      16.02848978       2.55954480      14.76153650       0.06722370       0.10599247       0.06732684
Po       8.48583664       5.78477375       8.23031361      -0.06275369      -0.12328613      -0.08391922
At       8.23246293       5.64682759      14.87619155       0.00324398      -0.07267443      -0.03098632
Rn       0.47788974      13.75135725      12.98728002       0.02970229      -0.07463430      -0.04864252
Fr      14.14021044       5.03647534       7.68233311      -0.00723509       0.02107812       0.09369870
Ra      14.72482673       6.16974326       2.02724632      -0.01583510      -0.01029412       0.05736089
Ac       4.72426626      15.98332657       7.88063669       0.04749298      -0.19516942      -0.05724831
Th       6.05306290       6.69783597      10.28503287       0.22470045       0.02490284       0.16168462
Pa      10.68769166      14.72919666       0.99705244      -0.00813724      -0.19579890      -0.06458209
U       14.52051636       1.68835695       1.05424001       0.03344612      -0.12436682      -0.52292001
Np       9.90497547       8.06861562       9.56233217       0.15378198       0.00434874       0.02763841
Pu       8.58124255       7.60741591       0.93501424       0.01572484      -0.17316072      -0.09177813
Am       6.08192624       7.30477899       3.46036641       0.08620793       0.05739306      -0.15092638
Cm      11.61891664       7.09561034      15.85093697       0.01468851       0.13879469      -0.15688713
Bk      14.25611114       6.82220911      11.97227851       0.20611289      -0.01311092      -0.04443815
Cf       9.29909245       9.45143517       1.67542293       0.00031494       0.15089944       0.02517816
Es      15.44934046       2.73855270       4.55565815       0.06718041      -0.17475808      -0.06660585
Fm       7.74227777      13.26536791       1.44964321       0.00649163      -0.00505645      -0.04263105
Md       9.62105546      10.11413382      14.09788217       0.03558217       0.13200036       0.02762288
No       3.38013107       9.02309823       1.98993944      -0.01486229      -0.04890146      -0.16802126
