102
Lattice="40 0 0 0 40 0 0 0 40" Properties=species:S:1:pos:R:3:forces:R:3 energy=-515.7977294921875 stress="0.0024245642125606537 4.4008420445607044e-05 -6.984016181377228e-05 4.4008420445607044e-05 0.0030745677649974823 -0.0003091471444349736 -6.984016181377228e-05 -0.0003091471444349736 0.0027923849411308765" pbc="T T T"
H        1.27668672      12.35940231       3.20272344       0.17228578       0.05284303       0.17186481
He       0.27723823      14.65644193       7.66126386      -0.01112442      -0.09120869      -0.01905407
Li       2.48240356       6.46343894       8.15958683       0.06765789      -0.06273340       0.01971849
Be       9.15684781       8.58232747       4.54899881      -0.07023831      -0.02502085       0.00716540
B        9.78851794       7.94089705      10.83249990      -0.11657715       0.00812699       0.22400695
C        4.44972143       6.72108090      13.87472554      -0.27810863       0.01531151       0.12151217
N       12.45736611       8.72103546      11.26939964       0.02414975       0.06830329      -0.01697075
O        4.47205929       8.72049134      10.56064309      -0.15217125       0.22469807      -0.12196741
F        2.93632602       5.66486087      11.53521874      -0.12031594      -0.04587606      -0.27603412
Ne      13.16024571      16.35844694       7.72371575      -0.04102001       0.03364591       0.01471712
Na       5.15531572       8.67200014       8.01807370      -0.20529243      -0.16059244       0.05716292
Mg      16.01279768       8.60596344       3.38580890       0.03806028       0.00066793      -0.04419531
Al       9.54781697      14.83333893      10.88093095       0.07139309      -0.18219888       0.02540857
Si      15.07401023       0.78108840       2.08742252       0.11323977      -0.03551726      -0.21027885
P        5.34839092      16.08667674      13.01966728       0.04197904       0.09519032      -0.45898491
S        5.53048314       3.04856462       3.87009272       0.03285025      -0.03124517       0.01141066
Cl      10.89810405       2.37522799      14.34397707       0.10374562      -0.05039570       0.04269183
Ar      14.03754809      13.81825614       5.93860810      -0.00589569      -0.05489778      -0.02848708
K       12.13242830       1.92710469      11.77805196       0.03443971      -0.06295525       0.02553806
Ca       6.16082528       9.89675057      10.65575839       0.10356571       0.09342718       0.14036101
Sc       3.61518464       2.56554685       8.93172959       0.02645661      -0.14715345      -0.06872719
Ti      16.10606320       1.53352159      16.18141139       0.12986033       0.09864540       0.23285773
V        0.25307965      16.05922516       0.64234642      -0.09617698       0.09815434       0.06537331
Cr       2.36103876       8.57675013       3.58909270       0.23750356       0.24856758      -0.30919692
Mn       5.44411701      14.75744477      14.34661610       0.13107556      -0.21779168       0.12630367
Fe       3.10222635       1.59523949       6.61436224      -0.28461751      -0.13111915      -0.22707222
Co       2.35908982       2.65537271      14.81931153      -0.36319882      -0.03368539      -0.02541935
Ni      16.20826060       1.72975013       3.61268856      -0.03574689      -0.21095799      -0.32481954
Cu       6.47064952      16.31809005       6.44987886      -0.14767164      -0.10486703       0.08415122
Zn       9.43289980      10.44172925       9.76065423      -0.04724445       0.08032725       0.13833906
Ga       7.45002796      10.14000665       8.10905567       0.01998016       0.18604253       0.02389417
Ge      15.63778813       8.53955596       8.57402332       0.17226368       0.14058077       0.02508982
As       6.15606887       6.27921418      13.41753526       0.56082785       0.00974645       0.09088524
Se      14.78827558       1.65931076      13.94565314       0.19276759      -0.18190125      -0.10423060
Br       1.42595442      15.15038975      12.66578215      -0.13484398       0.09460042       0.06144432
Kr       8.06821476       1.12247538       1.38997888       0.03311647      -0.00906996       0.01872591
Rb      11.74396508      10.52750113       1.22113236       0.09918214      -0.03120839      -0.10214055
Sr       2.24833748       5.40014117      13.52527060      -0.13296856       0.14204144       0.18133780
Y        4.48727749       6.93113565      11.62077742      -0.16653804      -0.14412469      -0.16715300
Zr       9.05602366       7.84250366       8.83977322      -0.08668126       0.08794095      -0.07707414
Nb       4.41858663      16.34478474       7.51545254      -0.04317219       0.10270745       0.01989645
Mo       7.49185540      13.05106996       6.68869630       0.25364912      -0.39616370      -0.18035731
Tc       8.28224182       8.79688870       6.19872572      -0.12367773      -0.04434622      -0.06995638
Ru      15.10722552       3.25019061       2.02580301       0.01589372      -0.08993054      -0.01421025
Rh      15.66564591       6.43943946       4.90281130       0.09672457      -0.13462022      -0.22484174
Pd      16.14010033      10.26627956       1.79400635      -0.16045296       0.07173128      -0.14631686
Ag       9.15604689      13.05075298       4.49978472       0.02599022      -0.10552935       0.14517921
Cd       4.91738459       0.06819957      10.01002274       0.15304679      -0.11157997       0.22403564
In       4.61423334      12.97382274       9.12197027      -0.12095056      -0.31795502       0.01920195
Sn       9.51868771       7.83723727      15.37190164      -0.03540197       0.00437557      -0.17791167
Sb       0.11602214       6.36811771       7.43723773       0.09406521       0.14959925       0.11483161
Te      10.69705301       5.71476073       7.47353039       0.08162258       0.04410021       0.04939574
I        9.77814874      13.26802137      15.95752225       0.13273118       0.00637470      -0.12638509
Xe       1.99718527      10.32089082      14.54271660      -0.07437657      -0.10375699      -0.11850485
Cs      12.44464941       2.33351279       5.21908821       0.02189686       0.01235276      -0.05145915
Ba       1.52207528      11.57644831       6.62807150       0.02615735       0.02517299       0.01102170
La      14.61637551       8.96747851      11.55759449      -0.03491829      -0.10970913       0.01372536
Ce      10.63025919       9.53617882      12.27693168      -0.00661798       0.09154271       0.04936150
Pr      12.99573490       2.08950965      16.12258672      -0.03845839      -0.03721496       0.17410477
Nd       0.07955529       4.20731536       5.11935818       0.05919679      -0.28791907       0.06332959
Pm       0.11309195      13.21192891       1.61036703      -0.24439383       0.04563032      -0.35721058
Sm      13.37415611       5.75388348      15.24194656      -0.02371339       0.23958726      -0.11167607
Eu       8.73801508       6.79753588      12.97762850       0.06031832       0.00275215      -0.11809207
Gd       2.21823949      10.49030154       2.85279516      -0.05501160      -0.29730314       0.12142384
Tb       7.30125733      10.83719022       4.24660698      -0.24364159       0.14094652      -0.03089724
Dy       5.70875689       7.92221983      15.60784947      -0.10964862      -0.03517444      -0.11061122
Ho      13.76830608       6.10762410       7.15331804      -0.13463727       0.11020257       0.02515469
Er       4.66547253      12.99743781       1.86709325      -0.04177290       0.03711522       0.06535594
Tm       5.83003214       2.50394856       6.45412503      -0.07700652       0.10121906      -0.29646522
Yb      15.88682047      13.13242637      11.50958402      -0.00003331      -0.06040866      -0.01904392
Lu      14.34367255       5.47422477       2.81509554       0.08178761       0.15022278       0.21635610
Hf       1.68475099       8.08298538       5.55414176       0.04005846       0.09466572      -0.08622985
Ta      14.38772456      15.98628469       0.08735099       0.20423183      -0.15271206      -0.00005141
W       16.25767158       2.02572802       5.84225534      -0.32607949       0.50590283       0.10850501
Re       8.91029831      11.17676506       6.48998078      -0.12744437       0.20120266      -0.10705091
Os       1.48764533       8.90094300       7.72116099      -0.10820733      -0.29998067       0.39197958
Ir       9.12412206      12.68395142      11.20661154       0.13497184       0.03614157      -0.14329633
Pt       6.16686899      14.45868431       8.05218647      -0.38030428       0.60966742      -0.02180686
Au       4.70724366       5.04176009       8.70647214       0.03995880      -0.09440251      -0.05017662
Hg       2.70354680      14.88970153       0.25956044       0.05229019       0.03699676      -0.01169905
Tl       4.35505926       4.64652557      15.76705040       0.08588215       0.02062374      -0.01669702
Pb       1.04376553       1.61015696       8.34883947       0.03948371       0.03673132      -0.11693528
Bi       5.21934551       9.54132589       1.96593771      -0.06692934      -0.02194096       0.18763480
Po      15.61805069       6.39328434      12.98303045      -0.07312591       0.15084931       0.04612610
At      13.97931726      10.62552630      14.48323594      -0.05384001      -0.14289171       0.01343899
Rn       8.02263237       2.95616647      11.07980340       0.04085814       0.01732022      -0.01200108
Fr       7.80929983       5.74713864       2.16421985       0.02808312      -0.07246780       0.01589266
Ra      11.69151783      13.50603559      13.09445895      -0.04990045       0.03687027       0.05489700
Ac       7.31390879      13.89380706      13.27229014      -0.20427945       0.12847590       0.16124383
Th      10.74882385       8.86188672       6.48841630       0.22649774       0.11910953      -0.01306793
Pa      11.72881778       7.79665012       9.68225284      -0.18027546      -0.01428777      -0.08270805
U        1.72806719       1.13294680       5.26352927       1.08250237       0.03129860       0.03618228
Np      14.43530076       3.91908672       0.11204373       0.05808473       0.19451472      -0.15425883
Pu      15.69602923      15.07836532      14.68660343      -0.04591180      -0.32004905       0.36245790
Am       1.02649040       1.55144814      13.36815371      -0.10174215       0.16844709       0.10151106
Cm      15.77207191      13.39015120      16.07649044       0.02641662       0.50206739      -0.16001141
Bk       2.50245969       9.60643632       9.63789149       0.12766513      -0.06105621       0.09558779
Cf       8.42355540      13.02529538       8.69615364       0.13441974      -0.17247705       0.48924822
Es       3.36145486       1.84582398       3.70027303      -0.27857774      -0.11977055       0.34145701
Fm       3.50588319       0.85322330      14.49303549       0.23268268      -0.32354146       0.19082402
Md       5.13943159       8.01724503       4.72356467      -0.00406627      -0.03663672      -0.01542296
No       8.88714309      15.64396126       5.90159399       0.00143319      -0.02703291      -0.09216151
