102
Lattice="40 0 0 0 40 0 0 0 40" Properties=species:S:1:pos:R:3:forces:R:3 energy=-511.4068603515625 stress="0.002788061276078224 -0.0007433133141603321 0.00012396097736200318 -0.0007433133141603321 0.0026259066071361303 3.526655382302124e-05 0.00012396097736200318 3.526655382302124e-05 0.0031446844805032015" pbc="T T T"
H        0.82772590      11.64191051       5.26699105       0.05227824      -0.06884503      -0.06144708
He      13.97077614       8.27190414       5.17535962      -0.01316814      -0.02748217       0.04727558
Li       4.03984174       4.89129414       4.24255489       0.08431526      -0.03234503       0.06926925
Be       4.66796466       4.22356222      14.05382534       0.14625667       0.11769921       0.07999780
B        7.10160373      11.78916082      12.52035164       0.01392490       0.02696553       0.00240347
C        6.44150116       7.46842337       0.83774824      -0.03022593       0.02242452       0.17557141
N       14.98516348       3.86030991      13.33689296       0.06463821       0.12976867      -0.13798702
O       13.66595307      15.48304859      16.03926052       0.32220325      -0.22503394      -0.05316247
F       14.92649460       3.93219413       9.41552643      -0.04479403       0.02903659      -0.00782116
Ne       5.63703847      15.92912973       6.09195462      -0.01088035       0.04588685      -0.02608088
Na      10.61808744       5.41266630       5.91540691      -0.01707938       0.06445186       0.00783211
Mg      15.42728265      14.92637023      16.01362995      -0.23196721       0.18690914       0.09823456
Al      10.79087412       3.58817968       3.15806858       0.07643299       0.07508411       0.09713685
Si      11.17016945       2.06126198       7.45854169       0.13699299       0.04768205      -0.05247881
P        1.89211439      12.39124391      14.89971998       0.07962273       0.04249479      -0.02222614
S        9.11942657       0.18282776       4.22132458       0.04892977       0.15564525       0.05376257
Cl      15.72243534      10.00449567      12.90216765      -0.12221516      -0.10388882       0.09766036
Ar       4.04641038       0.06996262      15.66742806      -0.01965364       0.02730235       0.04834525
K       12.54870043       0.77957186      14.82592307      -0.03698278      -0.03642480       0.00679927
Ca       6.18841013       2.71634293       7.24830745      -0.00716531      -0.00695768       0.03239884
Sc       2.35736907      11.56460551       8.14583944       0.44139695       0.18600486      -0.05508316
Ti       7.27240113       5.57074286       3.24185221      -0.04321989       0.04615841      -0.10775256
V        8.51167059       5.30975690      15.35250784       0.16118801      -0.12913090      -0.16372290
Cr       0.45992937       4.82361690       2.47703339       0.05339132       0.01543501       0.05845363
Mn       9.40359465      12.12161971       2.39945171       0.01544476      -0.04507730       0.01892947
Fe       8.40843120      10.93725624      13.26890047       0.02811433       0.03870948       0.04013366
Co      15.38402957       5.18408964       2.24574021      -0.03884146       0.06369448      -0.02287175
Ni      13.26562213      11.03893239      16.33305465       0.02082542      -0.07190627       0.02945401
Cu       1.64684213       6.24216480       3.84426736      -0.02539299      -0.00698744       0.04630044
Zn       8.76058980       3.16995083      16.47735209      -0.00021915       0.01653942       0.01291223
Ga      12.59110710       0.67437533       8.72866333      -0.02043613       0.02076023      -0.00702751
Ge       0.94473050       5.82727358      12.50158334       0.03756257       0.04834630       0.04060087
As       6.70150272      15.09421389       9.72907674      -0.04743114      -0.12039743      -0.11893018
Se       9.80433905       8.12813517       6.24647337      -0.05951371      -0.00871007       0.06718852
Br      11.41226743      13.62198897      13.45144721      -0.08618697       0.00299779      -0.01902091
Kr       8.10288937       2.73115993      11.58519888      -0.01506247       0.05077746      -0.07872839
Rb       7.25716992       8.61753421      11.58463412       0.02668983      -0.04755176      -0.03483298
Sr       3.06145242       3.20581975      11.68769731       0.00104519      -0.02906640      -0.03000076
Y       13.33286233       5.27426442      14.03637307       0.03021774      -0.01040538      -0.12155461
Zr       8.84004020      12.73188073      13.74125958      -0.01268154      -0.07007471       0.11244763
Nb       9.92759009       2.19139595       5.29847732       0.00416046      -0.17084801       0.03303346
Mo       2.52644632      12.18339166       4.81809195      -0.04167140      -0.00262318       0.20779496
Tc       9.42480572       7.18238504       8.49992546       0.11001548       0.05113274      -0.17788854
Ru       9.64177297      12.63680680       4.86526069       0.19372690       0.29275477      -0.05825635
Rh       5.18612897      12.01346731      11.43800046       0.10954060       0.06231395       0.01600559
Pd       2.73593657      13.16991103      10.08437507      -0.05881392       0.01145833      -0.02142965
Ag       1.74457265       8.95016878       8.93568732      -0.04374549      -0.01563167      -0.05818275
Cd      16.58832864      16.25098656       7.01166278       0.04308991      -0.01586621       0.13554284
In      10.67794523       4.30658838      14.20555496      -0.00971733       0.01500561       0.07001517
Sn      10.54898453       7.28035893      15.17253027      -0.10851970       0.06263348      -0.06288005
Sb      16.45337338      10.70606881       8.43253105      -0.35060579      -0.00732103       0.18168175
Te      14.58327588       5.88257007      16.57798323       0.05694707      -0.09743015       0.02908057
I       13.72250110      13.48677374       4.81962132      -0.01517853       0.03191756       0.05089251
Xe      13.82009732       0.77700036       2.63652830      -0.03989198      -0.07397912      -0.10657106
Cs       3.53741198       6.72845595       0.95982643      -0.05641126      -0.02921610      -0.11504182
Ba       5.66932974      10.47800085       0.09616950      -0.01988042      -0.06944668      -0.01786385
La      15.81752848       7.47557882      14.12783209      -0.03322507       0.01649788       0.00495859
Ce      10.54115027      14.41206258       4.74770392      -0.23797095      -0.26960042      -0.00587489
Pr       0.56097387       0.07747128      10.58431051      -0.00694682      -0.05509241      -0.14460799
Nd       9.01141115      14.93059523      11.32535941       0.00190812       0.10491443       0.05943224
Pm      11.29859974      10.20427631       0.24658026       0.01109692       0.05384794      -0.07879636
Sm      16.11246103       4.05711884       4.53126533       0.09937346       0.15267661      -0.18753734
Eu       3.21043816       5.90058281      13.96406180       0.06791258      -0.15812674       0.02600013
Gd       2.04612231      13.11353546       0.76895216       0.07616054      -0.04063158       0.04205616
Tb       7.57220601      12.76506306       2.82122152       0.07378811      -0.07711348       0.12679347
Dy       0.78934719      11.38218372      11.25620583       0.14987072       0.07830120      -0.02866685
Ho       3.19652978      13.42073050      13.00823698      -0.04038242       0.06927150       0.06500436
Er      16.27757811      12.88974178       6.54687321      -0.07314216       0.11584160      -0.02341006
Tm      12.78198935      13.78476863      16.46914364      -0.36234802      -0.03233117      -0.10260339
Yb       3.22210434       8.51352866       5.15390945       0.00593209       0.09800185       0.09269193
Lu      10.91698344       5.32166896       0.60274210       0.05954995      -0.10210231       0.03737366
Hf       5.13270507      13.27634655       9.42837005      -0.04067747      -0.14215690       0.09831738
Ta       7.65750166      15.12747528      13.10143703       0.13382918      -0.01635313      -0.04390824
W        4.80592816      11.33919731       3.99329279      -0.02686684       0.00036501       0.00545311
Re       6.92898591       4.29721853       4.91281754      -0.05746710      -0.05060044      -0.07846862
Os       3.24910182      10.40835595       2.64653065       0.08575629       0.10077901       0.14458266
Ir      15.83926528       2.22468120       6.40513004       0.14683700      -0.14022371      -0.06942818
Pt       8.86017851       4.38627237       1.86286564       0.02143482      -0.00837415      -0.08172049
Au      10.76382608      15.79664489       9.07379312      -0.05812749       0.03695716      -0.00743904
Hg       4.13165642       9.44718198       7.81604755       0.10678206       0.05496321       0.09570780
Tl       8.72390289       0.45932681       7.77233061       0.02111055       0.06284932      -0.01036051
Pb       8.94918144      12.46974604       0.00658872      -0.01839189       0.03256249      -0.10250171
Bi       5.72583961       8.75339759       3.05861321       0.12743297      -0.16715465      -0.11492210
Po       4.85967159       4.81063186       9.24292821       0.08345177      -0.10051887       0.07711112
At       2.03389049       3.21300373       0.94567156      -0.03564608      -0.02534354      -0.03770883
Rn      14.23690252      14.33397791      11.13815316       0.01276328      -0.02270236      -0.02111552
Fr      12.59127387       8.84084389      10.73690515      -0.10468572       0.02718842       0.01022401
Ra       0.30715566       9.56678307       3.23443787      -0.06003000      -0.01279413      -0.09607705
Ac       7.06590776       6.76458101       7.23977833      -0.05676295       0.05574007       0.05931477
Th      14.02670470       2.81982020       7.47266438      -0.25778615       0.15096495       0.17513423
Pa      15.45309430       4.38508263      11.54105681      -0.17219661      -0.15765426       0.28659147
U        8.34304001       2.86090413       4.05112757      -0.20897299       0.11087373      -0.00901212
Np       6.22628556      13.91051453      12.18574390       0.02798504      -0.07130763      -0.06141503
Pu       2.44271854      12.72140847       2.85966199      -0.11527467      -0.07045248      -0.35154283
Am       7.43411832       6.37107807      16.45074070      -0.18391448       0.32141808       0.17457932
Cm       0.00158641       3.74816737      14.84891354       0.03872016       0.11363426      -0.08626926
Bk       2.41976407       6.45471320      10.07780741       0.15781125      -0.10928367      -0.09002526
Cf       9.61766784       5.66188232       9.90313038      -0.05617265      -0.16740149       0.01691793
Es       5.43721033      11.77625211       6.04600332      -0.05154172      -0.04504980      -0.03592119
Fm       1.67930426      15.24821239       4.28701737       0.05750793      -0.05259686       0.00483313
Md      15.96944439      11.89213380      15.63795075       0.01138287      -0.10745986      -0.00026808
No       8.99897219       9.56649574       3.61585966      -0.05126584      -0.02056606       0.03821179
