102
Lattice="40 0 0 0 40 0 0 0 40" Properties=species:S:1:pos:R:3:forces:R:3 energy=-512.8063354492188 stress="0.0026096361689269543 -0.0013281948049552739 0.0005462653061840683 -0.0013281948049552739 0.0026875408366322517 0.00013693649452761747 0.0005462653061840683 0.00013693649452761747 0.0025965115055441856" pbc="T T T"
H       12.36543215      14.75002178       9.72803557       0.01953350      -0.02076554      -0.00819310
He       8.14075684       1.09664530      13.20079019       0.03002670       0.01600830       0.01026469
Li       6.11559370      14.84267168      13.83778787      -0.06053849      -0.04620931       0.06117692
Be      11.04455318       1.06659233       7.64659731       0.02659313      -0.10503177       0.01247658
B        4.91188624       2.90036359       6.35331461       0.05468487       0.03496807      -0.05226931
C        2.62307778       7.28717555       1.77551884      -0.18972804       0.19917876       0.09959653
N        1.40508705      11.16781210       2.04896203       0.28390393       0.12707725       0.05751354
O        0.99277575       2.08657944       1.13125677       0.08252577       0.07907108      -0.14355913
F        4.78743727      11.42165433       5.78116758       0.10906875      -0.03226851       0.18084173
Ne      13.61015041      11.87542697       8.65907099      -0.01265499      -0.02918393      -0.00355776
Na       4.98519735       8.68803707      13.67678548       0.11851557      -0.01644265      -0.03228407
Mg       5.70013004      15.46714871      11.28039334       0.10520789      -0.05062097      -0.02205007
Al       3.84015097       4.33186139       5.41305175      -0.00797422       0.08676368       0.02765835
Si      14.59926903       9.26949640       0.77790298       0.08500461       0.05275988      -0.04493356
P       10.31792652      14.43591177       0.55935366      -0.06410626      -0.03385541      -0.04522321
S        7.71657724      14.00620975      12.36590370       0.03873937       0.05299471      -0.08025204
Cl      10.13746248       8.95421100       2.22264990      -0.00718499       0.01221737       0.00609299
Ar      14.41328319      14.89024323      15.94782743       0.05031802      -0.00585548      -0.07964676
K        9.16497055       8.22577942      16.15080329       0.02684275       0.06994735       0.01572503
Ca      13.65298634      14.00333266      11.14328767      -0.06558438      -0.10726704      -0.10384434
Sc       2.14771198       5.17895776      12.34341552      -0.00717388       0.06413531      -0.00697399
Ti      11.01061604       7.33027732      11.13863162      -0.01020934      -0.20152603       0.09061544
V        1.90790230      12.35264913      10.73899185       0.04547075       0.43863511       0.38036728
Cr      16.13698223      12.18178283       4.73064097      -0.25729954       0.24758498       0.11023265
Mn       1.05530400      16.27856320       8.02283063      -0.10479073       0.20760655      -0.17276846
Fe      11.53849668       5.79734892      11.59214491       0.01365534       0.09699976       0.03336373
Co       4.95621509      12.14487242       1.06686784       0.01527358       0.04741053      -0.33126229
Ni       6.54326035       6.67427095      11.60924896      -0.04693800       0.00566080       0.04645884
Cu      12.15380299      15.12193507      12.92035877       0.01378023       0.00074723      -0.00862342
Zn       2.91073262       2.38984044      13.77182913      -0.00745776       0.07015873       0.02574005
Ga      13.04943141       4.69331078       9.85535320      -0.01380636      -0.02599718       0.02374799
Ge       4.20416987       0.70523926      14.41177596      -0.06025389       0.04900860      -0.03302847
As       2.13368805      16.25699911       3.23667241      -0.06164668       0.04781449       0.02265355
Se      12.18484439       2.58602525       5.02043552      -0.00932086      -0.02854610       0.04494283
Br      16.23817159       5.17000124       1.88451806       0.01283376      -0.01045766       0.00029595
Kr       8.73774799       4.79978891       2.31627243       0.10092781       0.04519067      -0.02185378
Rb       4.41587388       5.00781043       0.64254164      -0.03267396       0.02908621      -0.03725071
Sr      13.00331380      10.41426036      14.79528761      -0.04114392       0.11259647      -0.09246415
Y        0.93277499       2.55044877       8.72419392      -0.01657936      -0.02633125      -0.08366223
Zr       8.34441249      11.78697577      13.58262023      -0.07216488       0.02238171      -0.00087694
Nb       0.23039855       9.68676860       2.20704743      -0.07443374      -0.34292588      -0.24631560
Mo      14.99798945       2.01436861       3.84054648      -0.07306094      -0.05209763      -0.11691859
Tc      12.46540199       9.18396617       1.43637117       0.12713377       0.02216917      -0.08883709
Ru       9.07747299       6.71048192      12.31239563      -0.05406347      -0.12022775      -0.19803828
Rh       7.91540039       4.91387056       8.52516596      -0.11055507      -0.05660255      -0.07044470
Pd      10.75291426       5.02555989       9.44124938       0.00027180       0.03716952      -0.07598881
Ag       9.74410605       9.14187639      13.05893207      -0.04619696       0.04918907      -0.03419419
Cd       5.57927622       2.93878137       4.19036106      -0.01656471      -0.01528496       0.00746603
In       0.00005386      10.68734617      11.04727677      -0.22785538      -0.10103121      -0.00861843
Sn      16.32422186       4.80215617      10.63974375       0.06295609       0.01956508      -0.01252802
Sb      14.25137882      13.79683309       3.71437066       0.08903854      -0.04601883       0.09484381
Te       1.31559894       3.54963276       5.71340311       0.22421940       0.10789264      -0.02977224
I        8.85601283      14.88415683       6.24750028      -0.01361965      -0.01448506       0.00123557
Xe      10.06994586      10.84642826       8.41031517      -0.01335820      -0.00952599      -0.04967287
Cs       6.28154279      11.85758963      10.21695695       0.03277425      -0.08195755      -0.00280801
Ba      10.29588081      15.77572033       9.99755899      -0.12092906       0.08519247       0.02696133
La       0.05674007      15.44531630       5.00858203       0.08040164      -0.00314612       0.03354743
Ce       1.78459544       6.73045939       3.33574700       0.00395510      -0.06560320       0.04551017
Pr       2.76772747      16.03986120      12.42963478       0.08866875      -0.11376709       0.06444362
Nd       1.65453970      14.79267044       8.71818711       0.09703353      -0.04147580      -0.11529888
Pm      13.86326064       5.82038852      12.69780660       0.04822673      -0.06905481       0.05116312
Sm      13.50472581       9.71589378       3.15553935      -0.10728289       0.02601872      -0.04797924
Eu      10.50143029       3.51452286       7.46687892       0.00755650       0.05164190      -0.03310688
Gd       3.28084141       1.16540251       5.63012940       0.12823391       0.09980904       0.08599196
Tb       2.63893483      12.82141245       2.81599776      -0.11735381      -0.26718572      -0.02343333
Dy       7.62317183      13.36134291       1.11429408      -0.08533873       0.01579355       0.01586094
Ho      10.13212463       0.51287807       0.85828176      -0.04835206       0.04880270       0.02189121
Er       0.69329035       8.18156635      12.26152731       0.08888386       0.06662850       0.06567369
Tm      16.27844995      12.69525559       1.70298518       0.06462900      -0.03699802       0.02269748
Yb      16.51005761       7.08866544      15.89763429      -0.04345203      -0.00655827       0.06870635
Lu      10.05757556       0.80361228       5.23953471       0.00523361      -0.09009466      -0.00408354
Hf       5.10592864      11.91881099      15.60901228       0.07011510       0.02437381       0.24495965
Ta       1.91740155       8.84471436       9.41525219      -0.03051165       0.02465081       0.15455805
W        9.01909017       0.80702832       7.40241346      -0.11442464       0.11443481       0.02872330
Re      10.44303811      11.52846577      13.36184691      -0.12182376       0.04288201       0.04436570
Os      16.29142842       5.88170425      13.06386714       0.06045270      -0.11916336       0.04376404
Ir       1.67110359       6.62228048      10.37884147      -0.03530790       0.04550678       0.13865829
Pt      12.58921024      12.74361474      13.19529701      -0.09780651      -0.03509819       0.04153498
Au      14.88522522       3.64795209       8.61867716      -0.02541025      -0.00493021       0.13537180
Hg       2.00414417       2.42613718      11.40247608      -0.05466375      -0.01190815      -0.05070753
Tl       2.37304753       8.82095362       6.59348844      -0.02395359      -0.03731846       0.00169498
Pb       6.90124130       2.56102557       7.27379211       0.08679902      -0.03324119      -0.04562508
Bi       3.76141109      12.86893075      13.13678483       0.09964465      -0.02485333       0.05410562
Po       0.07437197      14.67556873      11.48026633       0.11153710      -0.08419877       0.05273189
At       7.71524733       0.68933753       2.61067359      -0.04723668       0.01096450       0.06158916
Rn      13.71307189       8.04507348       7.59088448      -0.03343298      -0.00291057      -0.06965299
Fr       7.45606586       7.63583520       5.78162803       0.07021430      -0.05991325      -0.12617630
Ra       4.19774570       5.38202572       9.08975415      -0.19431511       0.01896867       0.05995435
Ac       3.25318496       9.56729251       1.10454127       0.08917131       0.16507344      -0.10469358
Th      12.91314202      16.50980887       3.39912576       0.00125775       0.02769400       0.09299693
Pa       8.14714632       5.80210459      10.51546979       0.18869987       0.13684639       0.20552930
U       15.08012827       2.41628399       6.00663904      -0.07175970       0.06592506      -0.07105631
Np       0.32456278       2.16749067       2.76748167      -0.09257611      -0.06079131       0.28043246
Pu      13.97891889       1.21602303       7.44586765      -0.06457540      -0.06512924       0.01955691
Am      11.45079283      14.73365861       2.68534567       0.06126565      -0.16177547       0.17881629
Cm       0.27055485      10.61310263       4.14602259       0.14508674      -0.08821337      -0.01610970
Bk       2.29656196      10.94656026       9.59128690       0.07971996      -0.42286587      -0.44344017
Cf       0.31069841       3.84541010      14.38322694      -0.10600679      -0.09599739      -0.04376874
Es       6.26382586      12.61993621       5.02628279      -0.03679153       0.05590604      -0.09897927
Fm      10.32019580      13.78036107      14.34929935      -0.03998989       0.08313093      -0.00341989
Md       2.56326562       0.78370890       0.26906451       0.03853977      -0.01072269      -0.03186518
No       0.76245285      12.33194727      13.89827109       0.00760704      -0.06880227      -0.02699021
