102
Lattice="40 0 0 0 40 0 0 0 40" Properties=species:S:1:pos:R:3:forces:R:3 energy=-513.7984008789062 stress="0.0013510024873539805 0.00032358759199269116 0.0005009348096791655 0.00032358759199269116 0.0023193086963146925 0.0003204939275747165 0.0005009348096791655 0.0003204939275747165 0.0024370404426008463" pbc="T T T"
H        2.62163595       2.67958802       5.72309649       0.12790009      -0.08157846       0.10645145
He       8.16285017       0.47441785      14.25755472      -0.01644386      -0.00778682       0.02929668
Li       5.96540653      10.29782847      13.75141519       0.03938408      -0.22161740      -0.04115684
Be       9.81729423       9.16251812      10.61465586      -0.03557923      -0.08700252      -0.17922314
B        5.23643746       0.28986334      11.26148889      -0.12940986       0.19329014      -0.03209157
C        5.93001699       2.96585978      10.74992924       0.24535266       0.11162277      -0.35510874
N       10.20429372      16.16064802       3.61481409       0.02108747      -0.32844821      -0.15827724
O        2.14979857       8.30293305       7.65650606      -0.02350304       0.21004732       0.21223702
F       11.16790471      13.25325422      13.52135311      -0.03595676      -0.01081283       0.02621259
Ne       6.02458534      10.81770438       6.20850072       0.06374919      -0.03210504       0.04140358
Na       1.60525645       8.76277427       5.75121716      -0.04952534      -0.02386630      -0.16307952
Mg       3.06560985       0.37161822       9.24450312      -0.00274805      -0.06723505       0.06338321
Al      14.18979206       0.18251424       8.01611300       0.01683760       0.10433440      -0.05702306
Si       4.83662919      11.96424228      14.93729308      -0.03976208       0.02208084       0.12529305
P        9.14974349       5.51730281      13.65224275      -0.10344238       0.02086478      -0.02949198
S        5.31571712       6.02038045       1.33428223      -0.21882978       0.22519106      -0.13570970
Cl      11.34899681       3.73153495       1.46338935      -0.02861713       0.01686702      -0.19582465
Ar       5.13312771       9.67443346       9.74763730       0.05467325      -0.00848480      -0.01246677
K       12.81163114      10.48565724       8.68808430      -0.00664659      -0.07728219       0.06762032
Ca      16.00971094       0.99034357      10.59227959      -0.04029042      -0.01152116       0.07042269
Sc      15.94790085      15.72842587       4.51802921      -0.21431445       0.06328967       0.15075192
Ti       7.15013770       3.94291800       6.14610362      -0.20591266      -0.04370759       0.01750369
V       16.53250146      12.88313288       4.65576154      -0.03635797      -0.12034012      -0.05345130
Cr      13.22859845       6.56143820       2.04194244      -0.12068895       0.04602425      -0.06868052
Mn      16.62205780       4.05712981       9.60761389       0.07479356      -0.05675105      -0.01485938
Fe       6.59641633      14.66547733       1.96500570      -0.00841309      -0.22722514       0.15022485
Co      15.30673613       4.05060619       6.63105919      -0.06239583       0.01991777      -0.13032252
Ni      14.54569842      14.95966555       8.90194932      -0.04916828      -0.00842831      -0.00872494
Cu       7.19224394       2.01246263       7.58401816      -0.10255297       0.00918204      -0.03283118
Zn      12.44381959      14.77787664       8.21172368       0.02736681       0.09228379       0.02209079
Ga       1.75098965       9.93906625       8.13292052       0.07692817      -0.15368572      -0.11667765
Ge       7.66988420       1.78831984       2.17713441       0.02356666       0.00710536      -0.19462140
As       8.80872485       5.74087153       5.98152782      -0.01845697      -0.04830851      -0.01693659
Se      12.28698450       7.26120685       0.05037865      -0.04391060       0.04664553      -0.05177387
Br      12.42363495       5.95534057      10.56562284       0.03478494      -0.02509056       0.01805514
Kr      15.19585577      10.30153931      16.06209670       0.03566217       0.03379189      -0.07002214
Rb       1.16396789       2.84564906       3.86966764      -0.03686616       0.10987454      -0.15936220
Sr       7.46884167       4.73345000       1.80278061       0.10256898       0.00741424      -0.00942106
Y       10.46933047      11.54107517      12.69927992      -0.03610452       0.03815201       0.00996667
Zr       6.09655651      16.36306955       2.71282784      -0.00545827       0.16747513      -0.10858969
Nb       5.96709578       3.82766227       8.87437664       0.07406671      -0.15381016       0.11930097
Mo       5.54880836       1.90553786      12.24981209      -0.11377198      -0.01440662       0.09613979
Tc       1.49269973      14.43099103       4.38224844       0.15707380      -0.08068238       0.33933479
Ru       8.90042163      10.15951405      13.88697152       0.01220281      -0.00764498      -0.02039948
Rh       1.80488584       9.53564389      13.34002359       0.30525449       0.27184284       0.67847109
Pd       8.68132659       7.62758290      10.01264628       0.08715414      -0.05025570      -0.02091663
Ag      12.72550338       9.73365649      12.30011826      -0.08298344      -0.09885421      -0.07646908
Cd      14.19794558      11.32366868       3.58945360      -0.04274311       0.02037792      -0.04380433
In       8.67592366       2.42070806       9.56412746      -0.04686149      -0.01323784      -0.05200292
Sn      15.49924626       6.00352327       8.25254044       0.00204529      -0.06167747       0.10576005
Sb      11.96346342       8.52000515       5.71023526      -0.06790571       0.05556300       0.01779696
Te       3.42362222      16.39682051       3.46179902      -0.07715393       0.02132943      -0.02970847
I       12.28622336       0.15511810       0.00765428       0.06611998      -0.04257864       0.01967323
Xe       2.46781940       3.54313573      15.75729177       0.00379341       0.00494451       0.05283903
Cs       3.65131929      13.41244985      10.68644002       0.00885791       0.00186692      -0.10318912
Ba       5.90506902      14.97848523      13.79857412      -0.05075302       0.03004640       0.05884946
La      10.43154940       6.49236707       8.30189774       0.13360159       0.04336254      -0.03138960
Ce       9.41502057       2.73182652       5.70684334       0.53799456       0.02754220       0.15683009
Pr       1.04721113      14.75505791       2.23551828      -0.10717613       0.02315317      -0.45899385
Nd       3.74314878       2.53161225      11.37084891      -0.06267285      -0.13211226      -0.02351374
Pm       3.73740905       9.72504753       0.21598712       0.59032190      -0.40853769       0.11752163
Sm      12.30010816       0.60301206      13.03235289       0.03066250       0.02765594       0.01103541
Eu       9.20833237       8.11858536      12.87542998      -0.06709364       0.02102964       0.15364075
Gd       0.02004553      14.91418755       7.70994472       0.17531748      -0.01534690      -0.05342973
Tb       8.19518731      14.49277154       3.34022404      -0.01658893      -0.03212461      -0.00942582
Dy      13.56183983      13.62344383       5.92426345      -0.11526836       0.16515981      -0.03027512
Ho      13.36719654       6.64428356       3.84376863       0.06274831       0.06553571       0.05584368
Er       7.60946373       4.80110926      11.34678843       0.07012074       0.00652770       0.08614014
Tm       4.39260727      13.52078730       4.35928454      -0.10789503      -0.09746654      -0.04569463
Yb       2.21926562       6.36506933       8.56337539      -0.08204020      -0.09716111       0.03726039
Lu      12.15605598      16.22401424       3.22956128       0.34351885      -0.06847519       0.10209138
Hf       1.95771679      11.79443793       3.04715182       0.11330885       0.09083471      -0.02417862
Ta       8.07351632       4.82985437       8.26036521      -0.03021168      -0.04704462       0.06835448
W        5.63997259       1.38893678       9.63234976       0.01654199       0.18637586      -0.14068805
Re       7.31970690       1.96498092       4.52808358      -0.54415339       0.04625313       0.31387565
Os       1.77047358      11.78192232       5.45667270       0.05432239       0.19248909       0.09102255
Ir      12.88420429       3.66330069      14.19639079      -0.02262054      -0.04659717      -0.25371620
Pt      13.60258292       0.17178900      10.36728143       0.02766129      -0.13014479      -0.01274652
Au      16.63786339      10.41352781       3.80600381       0.01808273      -0.12210527      -0.07112977
Hg       1.30284584       9.52522392      10.90313071      -0.04657277       0.01913740      -0.20367232
Tl      14.35766700      14.20402836       3.02181068       0.05820454      -0.02049294       0.03850962
Pb      10.24507728       9.86380592      15.97634578      -0.01682991       0.00385821       0.00359350
Bi       7.22758405      12.09297197      13.00497655       0.20070577       0.11755105      -0.08757646
Po       8.52186182       8.18397758       1.64065302      -0.07739737      -0.02095704       0.10421938
At      15.23573049       4.97256809       1.03510322       0.15420952      -0.05265383       0.02758043
Rn       2.03376008       6.68718582       3.11843110       0.02068097      -0.07866737      -0.03841943
Fr       9.58559497      13.79349135      16.19575237       0.05826575       0.00982226       0.04600664
Ra      14.97887507       6.30248192      12.28485795       0.11145204      -0.02016002      -0.11671765
Ac       4.47164213       1.29548192       6.18790348      -0.10471450       0.13801074       0.19405857
Th      10.92091853       5.11747835      15.37785671      -0.03902499       0.24018721       0.07199541
Pa       3.91184341      11.95874959       0.87093168      -0.10251157       0.30178547       0.10687085
U       13.15838403       3.19461136      16.30805231      -0.02078269      -0.06397592       0.36065361
Np      16.42876372       3.23954473       7.99985930       0.00126569      -0.00019918       0.02127679
Pu       9.14984101       0.85954698       4.21263873      -0.07268298       0.27744085       0.12460670
Am       2.70152779      10.36240852      15.07081910      -0.33424914      -0.35127693      -0.27701318
Cm       1.16352835      13.13591540       7.24261883      -0.05581099      -0.04908365      -0.20592171
Bk       5.36772316       8.45379154       0.78754391      -0.40597168       0.14302129      -0.10869138
Cf       9.20606958       8.10117485       4.79110629       0.05941068      -0.00422500      -0.08352660
Es      13.69966396       2.10239623       5.74368586       0.07907440      -0.14469042       0.07678185
Fm      10.33847982      15.35582989       6.27610567      -0.00071993       0.04703345       0.06635156
Md      12.90592219       2.86203791      10.56649114      -0.01612359      -0.00785716      -0.08715318
No      11.74833351       9.28184186       2.19549644       0.02394409       0.03058872       0.07089125
