102
Lattice="40 0 0 0 40 0 0 0 40" Properties=species:S:1:pos:R:3:forces:R:3 energy=-516.3584594726562 stress="0.00272700609639287 0.0010987991117872298 0.0003832364600384608 0.0010987991117872298 0.003117004409432411 0.00015731880557723343 0.0003832364600384608 0.00015731880557723343 0.0019500745693221688" pbc="T T T"
H        1.12877684      10.01288031       1.42965812       0.02301393       0.02421588      -0.04201125
He      14.13209351      11.77326127       2.97821149       0.02862762      -0.02442642      -0.02100818
Li       7.29943692      15.36500173      15.98243461      -0.00263187      -0.03120063       0.04961425
Be       1.24172083       9.39148877      10.77817183       0.00211275      -0.17916539      -0.10365280
B        1.41690294       9.20254023      14.50963137       0.02255218      -0.11932889      -0.07404286
C        4.85014642       4.43725603      11.02916953       0.32707322      -0.44611904      -0.17141342
N        6.03555433       6.40402689       5.30224723      -0.30923501      -0.37661794      -0.45977512
O        5.13732951       4.64853990       3.49600541      -0.00788778       0.17062217       0.14423206
F        2.30329822       2.98566326      10.27393775       0.30791101      -0.11933158       0.18444493
Ne      16.18915643      13.82724474       2.28272188      -0.06168486      -0.02197140      -0.10295634
Na       7.24707321       8.52926694       5.33162577      -0.01300266      -0.04966615       0.07915361
Mg      14.11933953       1.86978856      12.01572967      -0.07942241       0.02745635      -0.05704958
Al      14.54523247       7.66434408       6.06800472      -0.00616470       0.01580319       0.02922906
Si       2.90916419      12.91804073      14.69463246       0.02484709       0.03947812       0.00555332
P        4.98124400       1.36655319      12.87264882      -0.06732857       0.00997062      -0.19170494
S       11.61059983       4.84101562       9.62130943       0.00153694      -0.07501122      -0.00290211
Cl      11.82958543      14.37310931      12.12443055      -0.01862417      -0.04821369       0.11634243
Ar      14.02475179      13.80855421       5.03599404       0.00775166      -0.01205681       0.00110722
K       11.72877768       0.68083291       5.80681204      -0.03129032      -0.02912572      -0.02655517
Ca      11.77501609       8.97176448       8.26572523      -0.01095922      -0.05935273      -0.00354248
Sc       1.51898361      10.95496777      13.48058594       0.12140318       0.02145390      -0.27490896
Ti      13.69801812       6.51351050       3.64177239      -0.18880628       0.04684073      -0.08368546
V        5.34355418      16.32896905       6.43763629      -0.14650588       0.39393100      -0.10779418
Cr      10.87285489       5.74512029      14.57000980       0.00752631      -0.52989948       0.34805551
Mn       1.24579090       5.55267953      12.65464310       0.52912974       0.11161494      -0.51910394
Fe       8.84808391      15.98440916       1.93236488       0.13002515       0.07349647      -0.04028944
Co       4.24743074      14.54415224      14.99276756      -0.08827111       0.14148328       0.03308362
Ni      11.50280991       7.42386467       1.67608511       0.15326470      -0.00070934       0.06077775
Cu      12.27241797      15.57479171       1.95414538      -0.01123479       0.10974608      -0.00255945
Zn       6.79040566       1.86951129       5.68062318       0.08200653       0.09220567       0.01085258
Ga      12.48129425       2.82005808      10.07746788       0.03337088       0.11447237       0.01957876
Ge      15.05825126       3.34079530       9.75792820      -0.02143388      -0.02561394       0.08075964
As      16.29630823      12.40045611       8.71060385      -0.09878197       0.04939358       0.12940136
Se       9.11408569       5.29178930      12.90254819      -0.04302312      -0.00763709      -0.09059443
Br       9.15353721       8.24509383       7.47438574       0.07034399      -0.04845175       0.05481061
Kr       5.28750083       5.33705836      16.47642564      -0.05374929       0.06833181       0.06838631
Rb       8.67515289       5.38020740       9.24470581      -0.01142230       0.04384182      -0.08937795
Sr       0.18966990       8.17547704       2.26878350      -0.06196419      -0.00124308       0.13764447
Y       13.83269619       5.48146826       8.46150673       0.04283054       0.06120872      -0.03549664
Zr      14.12636951       1.02115549       9.11232614       0.27535346       0.12906235       0.02853312
Nb      15.59137113       5.18329333      11.57027947       0.07852337       0.06170249       0.00382611
Mo       8.23193575      11.14152861      11.35327416      -0.07151741       0.01414740      -0.13575289
Tc       6.80837661      14.58157806       3.98406123       0.00855869      -0.10951011      -0.10255611
Ru       5.28994134      16.36476879      14.49987879      -0.00193244      -0.06967318      -0.04076336
Rh      14.03701262       5.38818515       5.52672316      -0.06056251       0.02582854      -0.14956804
Pd      15.16572969      16.29654274      10.81446649       0.04446024       0.04803126       0.08499553
Ag      12.97163352       1.61839881       2.35907692      -0.02376731      -0.08441325       0.07878251
Cd       7.79881313      16.27393896      13.49645418       0.03099374       0.08804857      -0.04163841
In       4.37959222      12.62940168       0.02658060       0.01228318      -0.03964743      -0.06424877
Sn       3.37940727      16.23196518       8.39465203      -0.21466380       0.03862394       0.19682863
Sb      10.37216172       1.17367575      15.05670423      -0.03308140       0.05162661      -0.09471058
Te       4.58382947      16.19505282       3.52310984      -0.11220701       0.10243664       0.07313915
I        7.88547157       9.26501551       1.20125414       0.01794523      -0.02026752      -0.06347637
Xe      13.72859201      11.64538220      14.29365365       0.04181836      -0.00356308       0.07916299
Cs       4.34618644       6.99695270       8.73915145      -0.01331045       0.07699218      -0.09852438
Ba      13.27191063      13.65908691       9.59456222       0.04685570      -0.07233226       0.04196675
La      11.11656470       0.19510446      11.07783190       0.08733920       0.12269863       0.11199316
Ce      15.54833916       4.08689551       4.73775865      -0.12597020       0.08343078      -0.02275090
Pr       6.64195543      12.04576753       2.02580736       0.03872765      -0.02539796       0.06714345
Nd       4.28088693       6.42441555       4.25508688       0.56288326      -0.29939234       0.24006067
Pm      12.32338359       5.80214830      12.36285527      -0.00766219       0.02996014      -0.01793965
Sm       6.80221591      11.91575942      10.26312064       0.12049034      -0.13225439      -0.03113604
Eu       2.18837743      10.47801060      16.28445095      -0.18465668       0.09713465       0.11712007
Gd       7.67413824       2.17697468      16.36504136      -0.08287833      -0.02843872      -0.03259149
Tb       0.60275492       1.81036347      10.93029742       0.07561757       0.12497462      -0.16817261
Dy       3.93706181      13.78936981       5.08255349      -0.03327961      -0.17282686       0.40946496
Ho      16.21172364      10.01782870       7.25951726       0.12482630      -0.02063278      -0.06726909
Er       4.83091797      16.11416011       0.64383225       0.11428473      -0.02253378      -0.05861823
Tm      10.01508042       4.27860820       2.40079719      -0.05568445      -0.07764569       0.07965621
Yb       6.69840236       3.69293547      12.59833853      -0.03904036      -0.05105384      -0.14989662
Lu       4.34327424       2.33834896      10.54394650      -0.01616874       0.13440359       0.05317800
Hf       6.62902689       4.69620102       4.56052325      -0.28506285       0.42353004       0.07457697
Ta       1.36495467       8.18229233      12.64386943      -0.12608030      -0.12545103      -0.00992483
W       11.07338172       2.36492051       0.70581446       0.02999295       0.02388304      -0.08997351
Re      14.18887566       7.17995234      10.86114369       0.04288477       0.03670101       0.11560747
Os       4.57703990      12.78408203      10.11304242      -0.15893011      -0.09381804       0.16757163
Ir      14.43561814       8.39737332       8.37208544      -0.01352706      -0.17792763       0.15211879
Pt      11.98215808      16.19971730       8.84809415      -0.02660994       0.09096223      -0.13665485
Au      15.35340089       5.49835087       2.25286646       0.00503034       0.03382745      -0.12524810
Hg      10.76396006      10.63918018      10.68330330      -0.01355093       0.02050330       0.02995753
Tl       3.49987676       2.00694823       6.66202501       0.00514656       0.13988701      -0.16114676
Pb       5.57903619      14.43067353       8.37031323       0.00578977      -0.04322456      -0.12502791
Bi       6.03467660      11.67824211       4.84601913       0.10445333       0.09648909       0.08813062
Po       4.03135204      11.18033443      12.15734333       0.00889760       0.09162861       0.02071628
At      15.42981574       0.91673274       6.15070039      -0.02628395       0.04390067       0.05209720
Rn       6.55412705       8.42327891      13.79765281       0.11401856      -0.08540360      -0.03384160
Fr      14.99348689       2.99747304      16.08306653      -0.03667518      -0.07950805      -0.02041843
Ra       9.31943925      13.09532469      13.34079057      -0.06454005      -0.03790386       0.05541223
Ac       4.85157663      14.99853285      12.12759212      -0.13012780      -0.06671146       0.03173742
Th      15.24887873       9.78639075      10.33190590      -0.03972739       0.10684668      -0.03151403
Pa       3.16134582       5.02239051      11.77781533      -1.21887791       0.24727973       0.66498983
U       10.25850095       0.42516211       1.35630729      -0.26106292      -0.35222614       0.14998482
Np       6.90552617      15.37455953       5.85762552       0.24443501      -0.11594460      -0.04693426
Pu      16.34431674       7.23956423      11.41734726       0.26462829      -0.05710083       0.03879718
Am      10.88329310       9.36420938       1.07756010       0.08856903      -0.10752746       0.09657373
Cm      10.91447138       4.15098579      15.53127725       0.03473046       0.56417966      -0.29369763
Bk       0.55481537      15.06270963       9.17058491      -0.02314530      -0.20853053       0.00091896
Cf       2.35822956      11.64763664       9.62623291       0.12062496       0.23712316      -0.07614864
Es       2.29531623      15.72871484      14.95759863       0.04249223       0.00009875      -0.09094121
Fm      12.62309696       7.23226796      15.93556743       0.10973227      -0.01786788       0.09099598
Md       1.16228023       6.80403228      15.19616069      -0.08639438      -0.00002639      -0.00117832
No      10.04565130      13.46624157       1.43575523       0.10268897       0.00238776       0.03362256
