102
Lattice="40 0 0 0 40 0 0 0 40" Properties=species:S:1:pos:R:3:forces:R:3 energy=-514.8319702148438 stress="0.0021379052195698023 -0.0002913930802606046 0.0010666772723197937 -0.0002913930802606046 0.002731946064159274 6.527351433760487e-05 0.0010666772723197937 6.527351433760487e-05 0.0027967682108283043" pbc="T T T"
H       11.38379583      16.43906963      15.06566276      -0.02356916      -0.07157801      -0.09484555
He      14.18061250       7.43515322      15.61799261      -0.07775110      -0.11110164       0.01232208
Li       6.11088935       9.38597640      12.60809288       0.07736246      -0.12174547       0.09437989
Be      14.87218719       7.16384842       7.71418205       0.14333697       0.00676948       0.18428636
B       15.08193568       8.58463637       9.58402930       0.15974289      -0.14344192       0.10679629
C        1.53289428       8.24843867      10.02889081      -0.06719655       0.02387402       0.00058199
N        9.98852995      14.87554601       0.00315008       0.01135899       0.08592605      -0.08995214
O       14.23774646      14.08838261      14.80108429      -0.19544271       0.28777307       0.09363461
F       13.79531707      11.98097368       2.47758041       0.07302038      -0.03581595       0.09050493
Ne       2.97245857       0.22216926       3.13784212      -0.04742645      -0.02023078      -0.13382041
Na       0.15351767       5.97741700       5.51485249       0.00432642       0.04243004      -0.02850459
Mg      11.84178989       0.76249371       0.05712964       0.00109883      -0.00101064       0.15916245
Al       2.95645442       7.56432462       6.97931741      -0.03051102       0.03871027       0.20537452
Si       6.37972972      11.92491918       7.70495376       0.04545109       0.05903706       0.08062091
P       10.65242092      11.57500511      15.67215823      -0.09306544      -0.04528315       0.07703865
S       10.94601407       9.87158410       4.78709186      -0.05901191      -0.00177219      -0.16019192
Cl       5.26118610      15.58453482       4.86536808      -0.01200840       0.13988456       0.04462777
Ar       9.32939644      16.18533950       4.07264806      -0.05674519      -0.02359097      -0.04352077
K       11.84727681      11.09768137       9.53640075       0.08481640       0.04140900      -0.07647537
Ca      13.08717015       5.94123333       6.30721689      -0.02736893       0.10958032      -0.04077168
Sc       8.97930529      13.20796181      16.43013120      -0.02388904      -0.06330097       0.07769911
Ti       1.69012437       7.99061111      16.03188655      -0.36945218       0.50646281      -0.29688171
V        9.79115364      15.91446984      15.34206495       0.06551407      -0.12130195       0.02173714
Cr       3.19198881      16.49588990       9.07253610      -0.11309204       0.22638406      -0.43319121
Mn       9.90546265      14.67078591      10.21828982       0.01949930       0.06101988      -0.00410116
Fe       2.50355043       6.84701337       0.20311734       0.19837329      -0.44653130       0.13412815
Co      16.29187000      15.14316753       6.32698638      -0.13941890       0.05835255      -0.09465700
Ni       6.11521742       9.54389837       2.11165428       0.03990345      -0.07458651       0.06571068
Cu       6.10386732       3.15781362      15.43447249      -0.03309359       0.01198816       0.00609279
Zn      11.28735335       3.40991812       0.42567237       0.02288093      -0.01153665      -0.05540660
Ga       1.02431695      13.95222130      11.78231534       0.07399677       0.01962379      -0.02164642
Ge       8.25648300       8.98353935      13.81128896       0.02710889      -0.05423593      -0.05628592
As       0.32168387      10.40137246      15.31992062      -0.00270660      -0.07741407      -0.18596847
Se       4.79273972      10.31057301      10.93718991      -0.10411724      -0.19938448      -0.13644356
Br       4.60857767       5.98934050      11.08268511      -0.00761935       0.06667960      -0.04866828
Kr      16.16106726       3.59130641       8.91348603      -0.04696973      -0.02002511       0.09221350
Rb      15.43481103       4.69589815       0.09194700      -0.04726878       0.00112837       0.03748339
Sr       2.54344487      12.44146922      14.74283432      -0.00539522      -0.07842574      -0.00743087
Y       12.53666841       2.78876512       2.52870848      -0.03902800      -0.02587083       0.10596363
Zr       8.85480428      11.49557151      13.78899720       0.16254103       0.15855049      -0.07660821
Nb       3.70675359       3.37715667      15.98304244       0.03998030      -0.07144320       0.15485579
Mo       6.30317966      11.74970801       3.06805468       0.01786687       0.13322654      -0.04023635
Tc      12.43248031      11.90488544      12.84819451      -0.19211937       0.62140298      -0.34566203
Ru       7.52073228      10.98412831       0.81442369      -0.15355104       0.04841399       0.07053047
Rh      10.69387181      14.06281749      12.69286517       0.14277242       0.13323203      -0.10319301
Pd      13.87160150       8.66290974       8.21729732      -0.04078858       0.06121047      -0.12798199
Ag       1.29389155       1.68553891      15.21282670       0.14070052      -0.03136539      -0.02145309
Cd      11.04074362      15.39046729       7.99301738       0.03453358       0.09386117      -0.00909780
In       5.44623933      12.60770215       0.38415454       0.00650819       0.00774414       0.06908009
Sn       8.27299247      14.55051418      13.62680955      -0.13898209      -0.02567561       0.05599014
Sb      14.55951093      13.37510703       6.05396347      -0.08775920       0.04483351       0.21568020
Te      14.06449323       4.84835123       3.89048655       0.09715665      -0.11482950      -0.01385646
I        1.32558179       2.93776293       5.34231742       0.00425938      -0.00150226      -0.01644961
Xe      11.47923497       5.05199305      11.38582174       0.07061492      -0.06599801       0.18540525
Cs      11.62960468      13.08489644       3.43576494      -0.05350176       0.00397222       0.02553878
Ba       3.99892154       9.08377669       2.78605472      -0.10742870      -0.04082565       0.03492853
La      12.39617649      10.17890138      13.93061799      -0.03454092      -0.78142804       0.37766087
Ce      12.00277726      13.79073025      14.35329388      -0.05571373       0.09009634       0.09976596
Pr      14.08055792       1.53684979       5.62108624      -0.00625996       0.14781713       0.00730582
Nd       3.58218659       1.10966076       7.62489476       0.06594980      -0.34815025       0.47605062
Pm       6.19434698      13.05697501       4.60355282      -0.04185197      -0.04579768       0.12222168
Sm       5.17074260       1.97963615       4.32585270      -0.03934954      -0.03555056       0.03310645
Eu      16.40573193       6.62578553       9.62158323       0.07997170      -0.13154012      -0.02069998
Gd      11.62845730       0.93978375      10.62183946       0.04839988      -0.11367100      -0.30690056
Tb      14.17423844      15.79853213       8.23854833      -0.09091293       0.03161050      -0.07094319
Dy       8.15042974       9.93693801       4.77265574      -0.05946868      -0.01234864      -0.03431944
Ho       5.07713960       5.78354798       0.32092402       0.18997650      -0.02063675      -0.04576347
Er       1.33365669       0.26715181      12.61630177       0.03412811      -0.06219259       0.00690031
Tm       3.71037935       4.88957314       6.58666459       0.03573225       0.02062775       0.03634925
Yb       2.84616073       4.78508188       2.69466434      -0.04927558      -0.00915587      -0.06854365
Lu      15.51641160      12.84678726      14.02417675       0.36504343      -0.24726817       0.09807502
Hf       3.35536142       7.76766875       9.65893375       0.06969135       0.17087770       0.05315681
Ta       4.98845282       2.76361915       0.99379638      -0.09095092       0.17657351      -0.18746127
W        0.30912116       8.65659696      13.54550460      -0.07705820       0.09880444      -0.44307113
Re       8.76604220      12.80517155      11.44024084      -0.22720957      -0.02301059       0.13558045
Os       0.99311390      14.64465718      13.90181011      -0.01094139       0.07026836       0.06995542
Ir       5.11713697       2.73269798       6.91314520      -0.03195950       0.00387558      -0.05264947
Pt      12.67598991       1.40345667       7.60763563      -0.03374588      -0.03307466       0.13497511
Au      13.69498079       0.46578669       2.78595554      -0.03069646       0.02830976       0.00520738
Hg       8.41434752       1.13826337      10.24732482       0.01138773      -0.04371344       0.00926489
Tl      11.94163412       9.22009475       6.83064782      -0.02409475      -0.00072160      -0.03724625
Pb       2.10420595      15.09179434       7.13663035       0.15759307      -0.05188723       0.15120646
Bi       0.46409792      16.17901245       9.48811176       0.04874169      -0.06257863       0.03758875
Po       8.53655191      10.37138609       7.98382233      -0.14246944       0.02325346      -0.03871119
At      14.79322088      11.82217356      11.39721794       0.00845525      -0.10131119      -0.24579372
Rn       8.31229239       5.57196458       8.71862362      -0.05683441      -0.06182713       0.03506926
Fr      13.20942013       8.90977897       2.55806675      -0.07779586       0.00255435      -0.12008913
Ra       2.04913207       5.54917787      13.26185260       0.01022154      -0.03688331      -0.03248427
Ac       5.28951989       0.52751066      14.78079954      -0.02611608       0.06740969       0.06624229
Th       0.47103591       8.86070891       8.14712056       0.05516359       0.12920377      -0.02322155
Pa       7.17109034      11.62204039      10.50594744       0.20283031       0.20831184      -0.02254574
U       15.07985545      16.06542005       5.10773824       0.11305141      -0.10216278       0.06020570
Np       9.89414353       5.77312459       0.44557207      -0.04725245       0.18165281      -0.12161214
Pu       8.77208089       9.59395264      16.43970871       0.22716942      -0.30044717      -0.17923617
Am       8.20702797      14.55411599       9.56191684      -0.00900197      -0.11640213      -0.06919268
Cm       0.12199273       8.67497234      11.50083694      -0.05695370       0.11695073       0.53700280
Bk       5.14789725       9.24249142       8.17745759       0.11880678       0.09153063      -0.18186197
Cf      15.52581540      15.83303647      15.08071034       0.05299580      -0.04558189       0.08460323
Es       9.44342770       7.53796176      15.79239308      -0.08413483       0.06419033       0.19074003
Fm       3.69662239      12.62096476       8.67022063       0.09283537       0.14270064       0.04862423
Md      15.56147364      12.78009119       3.41342345      -0.02216318      -0.03661655      -0.24901652
No       8.51716057       2.25550022       0.14842013       0.07016037      -0.03631825      -0.06456102
