102
Lattice="40 0 0 0 40 0 0 0 40" Properties=species:S:1:pos:R:3:forces:R:3 energy=-515.1533813476562 stress="0.0016496828757226467 0.0009962765034288168 -0.0006342643755488098 0.0009962765034288168 0.001536609954200685 0.0006156690651550889 -0.0006342643755488098 0.0006156690651550889 0.0010175342904403806" pbc="T T T"
H        4.34721439       1.13573909      10.76682248       0.03754776      -0.07676468      -0.02600213
He      14.13016651       8.63402073      11.08168366      -0.01405217       0.00651606       0.04713912
Li      13.66632132      15.11857640       1.50981842       0.03519067      -0.06044589      -0.04449430
Be       5.24198366       7.88327241       2.82999201       0.13185349       0.15013832      -0.04209337
B       12.47357913      15.59403447       6.72520908      -0.06063687      -0.15625525       0.02556509
C       10.75354006       7.68159509      10.55188658      -0.19292381       0.03957190       0.06495562
N        3.52301418       3.44459574       8.34370861       0.11361113      -0.14758742      -0.00427861
O        4.77408067      13.87536776       2.72608314       0.02066743       0.08486897       0.08544511
F        5.96909847       7.45651969      13.05943648      -0.16733292      -0.02547608      -0.15775199
Ne       8.15933367      13.75683860      11.63140051      -0.02133648       0.03678526      -0.02536267
Na      14.73261396       3.82196538       3.93602001      -0.09719704      -0.11118361      -0.02547905
Mg      14.52894842      10.07942876      15.19755302      -0.02367404       0.00167548      -0.08377874
Al      13.36253348       0.13334148       5.53825871       0.09916830       0.11458656      -0.15771504
Si       8.84469161       0.59179109       2.73709076      -0.03201520       0.05131237       0.02359499
P        1.10000799       8.94503032       2.89197008      -0.01132072      -0.18190083       0.06484661
S       12.06634255      16.57250370       0.72048390      -0.04941247      -0.10308923      -0.12703121
Cl       8.85985575      14.06418323       5.86679400      -0.00132238       0.06134100       0.01411634
Ar       5.37141005      11.72877633      11.04264653       0.04339994      -0.01704128       0.00293399
K        4.59989181       4.05356755      15.02270268      -0.06597181       0.02081127      -0.00226791
Ca       8.06480961      16.43352004       5.22456351       0.04083844       0.03822599       0.10215981
Sc      15.86281642       8.93142484       4.58074331       0.17505826      -0.21208784      -0.06161420
Ti       4.75467597       0.33405075       9.31209734      -0.03450200       0.25078538      -0.03867602
V       16.00313593       1.75860483       8.73920169      -0.01924761       0.00849539      -0.08260614
Cr      16.33228328       3.07301022       0.52407620       0.00194257       0.07960778      -0.02349856
Mn      11.49315433      15.44254068       4.91063315       0.20073158       0.07106233       0.11353743
Fe      16.45748548       6.29726955      15.71838161       0.08204529       0.40627792      -0.06289078
Co       2.29218226       0.15053797       2.48567195       0.02508738       0.09276701      -0.07825334
Ni       0.88630769       5.43027744       4.54188366       0.07807153       0.04121335      -0.15652616
Cu       7.02170115       5.73923193       0.17195201      -0.15863623      -0.06152026      -0.07301776
Zn       6.07032401      15.29094112       7.80585800      -0.09222113      -0.02342132       0.00993127
Ga      11.71144431       9.26235314      15.38445486      -0.07518380      -0.05964754       0.02749957
Ge       3.97956526       0.75590219       1.31518001      -0.09022654      -0.04839503       0.04623719
As      15.35199893       6.41423520       4.87827499      -0.01441522      -0.11446634      -0.00478876
Se      10.98555650       4.57248023       2.09180918       0.16557737      -0.07469014       0.13106062
Br      14.20635944      10.72849770       3.73734588       0.01367490      -0.08309853       0.06946753
Kr      13.01792986      13.30035430      11.16779837       0.00542995      -0.02011701       0.02887324
Rb       3.38976170      16.49395207      14.41210888      -0.01409885      -0.00867319       0.03155764
Sr       4.80405724       7.42487311      11.18185087       0.07195318      -0.04159288       0.12456401
Y       15.94748898      14.91088560      14.68596496      -0.03879789       0.06694406      -0.08557472
Zr       9.54501849       5.97875594       0.42356508       0.16941482      -0.20952353      -0.17061673
Nb       9.19943476       8.94551084      15.55153593      -0.03306788       0.29537851      -0.58175522
Mo       7.69694387       7.80576934       0.68680913      -0.75371552      -0.17410973       0.19395104
Tc       0.11974526       0.87809856      15.93146142       0.04304506       0.16306961       0.02286538
Ru      10.55657091       6.97052375      14.51969172       0.01927354      -0.00526704      -0.00336248
Rh       7.30717108       3.70535086       1.07603485      -0.00859888      -0.40401164       0.14026284
Pd      16.23837430       4.25239928       9.81909313      -0.05826354       0.08892174      -0.01987259
Ag       3.27713868      13.09554608      15.32551134      -0.13240060      -0.02736515       0.00928899
Cd       7.62684718       9.41567578       2.42580606      -0.15453869       0.12401547       0.27240956
In      16.30737324       6.98611232       8.86830719       0.08591031      -0.04801944      -0.04029398
Sn       1.56075033       6.88530124      11.51609200      -0.08675711       0.01903344      -0.02090092
Sb      14.77534948       6.99847684       0.87925880      -0.03783159       0.07306509      -0.02622134
Te      14.68321118       0.03660511       3.15221260       0.14242683       0.07258116      -0.03898444
I        7.74458417      11.61526817      14.99714006       0.05900936      -0.03948696       0.03434330
Xe       2.29559698      12.69442917       7.39552191      -0.08276933       0.01261401       0.08257505
Cs      10.56215700      13.77741275      15.18922112       0.00957130      -0.02055802       0.10357029
Ba       6.56925090       5.81712486       4.13072736      -0.03266045       0.02447207      -0.16334066
La       2.01562277       4.98053762       8.64446812      -0.00900032       0.07625572      -0.09398324
Ce      11.08818019       7.55688682      12.47372070      -0.00081383      -0.16104554      -0.09660935
Pr       7.55576954       7.12344390      14.53150504       0.07002511      -0.06640865      -0.16485527
Nd       6.55981600       1.68999973       1.50936765       0.15053847       0.16180582      -0.04864761
Pm      16.55372930       1.06841956      10.66649825       0.02473190       0.03121058       0.21674231
Sm      16.33973375      16.39950248       5.68068352      -0.16616000      -0.06716839      -0.26872212
Eu      12.99531281       9.30359042       1.38495091      -0.03072532       0.19935493       0.10841077
Gd       8.94732266       3.17797869       3.42006307      -0.04870654       0.03478206      -0.15967794
Tb      11.01474061      13.72862924       7.17690849       0.01331437       0.19677258       0.04822330
Dy       5.93210214       3.87766723       8.09126134      -0.16614455      -0.08019587      -0.00767340
Ho       1.88787755       2.43499092       2.39192507       0.03641547      -0.07110879       0.06135056
Er      10.22078412       2.16764753       0.76885005      -0.06151816       0.05496812      -0.03902526
Tm      13.44219990       5.15503055      15.51821161      -0.05297777      -0.04439906      -0.01020246
Yb       8.66489894       7.45592110       9.37336806      -0.02011745       0.10074824       0.19081020
Lu      14.42432662       1.07501199       0.35434259       0.04449721       0.06250201       0.01372971
Hf      16.32244264       2.60573177      14.50284094      -0.00681181      -0.14521055       0.09037311
Ta       2.92113023       7.31266052       6.72651838      -0.08402243      -0.04379459      -0.12225664
W        0.51609051       7.01676642       6.31791765       0.25107473       0.06475466       0.12456387
Re       9.70310452       8.48901805       0.96159445       0.53236151       0.30428201       0.62097150
Os       0.63848936      12.86957888      15.60827835       0.09285533      -0.46892196      -0.18830687
Ir      12.32627923       5.17501409      13.02800327      -0.06953341       0.02597782       0.07602319
Pt      16.23712852       0.57856710      13.17244532      -0.01804791      -0.04036397      -0.00440176
Au      10.61172456       4.38576693      15.13135972       0.02703932      -0.13086718      -0.05323379
Hg       8.64233750      10.99712577       7.70530872       0.07891101       0.06647249       0.02863325
Tl       3.42204268       6.20623083       2.16866727       0.16080184       0.08569416      -0.05652708
Pb       0.92957934       5.07406974      13.67475444       0.06181447       0.05456422      -0.06142852
Bi      11.13232602       9.40381461       9.64534081       0.02253827       0.12425728      -0.16792214
Po       5.23903758       8.50884999       5.18706875       0.04956910       0.03456114       0.02237350
At       8.90415236       5.68828800       6.81637325      -0.05859077      -0.12783927       0.01684967
Rn       2.75343766      14.32824272      11.10484149      -0.04984223       0.06062636      -0.01649616
Fr      11.70669430       2.81024036       8.16100169       0.02827987       0.03618310       0.03435665
Ra       4.89035458      12.23248748       1.34123126       0.12788321      -0.21863949      -0.11622567
Ac      14.32106447       4.28311901      11.81329210      -0.01418340      -0.02941652       0.03755155
Th       0.67624258       9.82551009      12.20447584      -0.09082869       0.00848994      -0.27240124
Pa      15.02826083       0.17601384       7.75638244       0.00334628      -0.06797850       0.00842653
U        0.45311781       6.33209962       2.65796383      -0.14073217      -0.20638105      -0.57826984
Np      11.40336758      16.38207345       3.33779524      -0.06382537      -0.06296182       0.02590960
Pu       0.08658288       4.91122952       0.33723473       0.10274872       0.10080572       0.65806907
Am       0.77151999      11.02389461      14.43609987      -0.06500605       0.51398629       0.26309022
Cm       3.54266261       1.60190537       8.56646655       0.28570929      -0.01573531       0.15580347
Bk       0.72244078       8.86118808      14.32450311       0.03071969      -0.34186390       0.07570237
Cf       2.21162234       7.96453611       4.79422147       0.03449963      -0.10988495       0.05238307
Es       4.08631919      15.56307867       3.54673643      -0.10336678       0.02310853      -0.06036970
Fm       9.88212462       4.11065620      12.41499385      -0.00124866      -0.02020818      -0.04595895
Md       0.90559927      15.17015005       1.01008600      -0.02872485       0.12531759       0.04189476
No       0.48939965      10.82017470       0.93069003      -0.09411784       0.03257050       0.21725067
