102
Lattice="40 0 0 0 40 0 0 0 40" Properties=species:S:1:pos:R:3:forces:R:3 energy=-514.64501953125 stress="0.001655342523008585 -0.00022431933757616207 0.0005524519656319171 -0.00022431933757616207 0.0009143956704065204 6.445827966672368e-05 0.0005524519656319171 6.445827966672368e-05 0.0023176008835434914" pbc="T T T"
H        1.72134270       3.79593735       2.10978979      -0.06472647      -0.06042345      -0.01104593
He      16.13752008      16.42650605       4.84762825       0.06779860       0.07747190      -0.04007236
Li       7.80934161       1.26143188       1.57526126       0.29320824      -0.05172261       0.07583661
Be      12.20422659       7.98692911      13.53236682       0.00499979      -0.00450757       0.05644534
B       12.46637294       3.58167317       7.54686269      -0.12117248       0.15933830       0.11071937
C       16.22684950       0.75768071       9.19328312      -0.29639161      -0.05964616      -0.03333481
N       11.92107724       4.07350015      15.78573623       0.07744762      -0.10142686      -0.01617678
O        6.30897725       1.36905653       1.00406981      -0.25234708      -0.10929760       0.01703871
F       15.89584936       7.48827510      11.54739312       0.28421086      -0.03110951      -0.00280554
Ne      14.56855950       5.65777536       2.69790273      -0.02026126       0.01844360      -0.00318351
Na       4.36222203      10.14567787      13.25148830      -0.02378630       0.09389229       0.09247224
Mg       7.04174743       5.29834932       5.77277327       0.04489892      -0.06259542      -0.06448320
Al       3.18080861       9.82363505       9.38732711      -0.01239644       0.01867200      -0.10447907
Si       7.93872365       7.91022950      11.91356632      -0.14318854       0.06259936      -0.00289506
P       16.27616348       5.13597992       7.09765978      -0.16988514       0.01436216      -0.01184085
S       15.02201883      13.73558947      16.08951718      -0.00903985       0.05752118       0.06355138
Cl      12.22643074      10.84020488      16.57892629      -0.05034566      -0.07248862       0.08268915
Ar      14.13413446       4.11421708      11.88392685       0.08080895       0.07632062       0.02806995
K        5.27991849      15.51468923      14.13469724      -0.01234124       0.00278836      -0.05776389
Ca       2.37008094       4.24370440       4.03789526      -0.10552286       0.01299544       0.02118982
Sc      15.93783303      12.50865754       1.37799967       0.03725061      -0.07865596       0.07217006
Ti       2.95406186      12.53994148       9.53134403       0.07661724       0.15127206      -0.05541524
V       15.11540192       1.88383773      16.15518419       0.23416959      -0.35742432       0.05138761
Cr      16.59999184      11.93598925       4.45537706       0.14222816      -0.24268831      -0.05284946
Mn      12.63254439      16.58339859       8.55759205      -0.07239352      -0.10301888      -0.23555383
Fe       8.49419293       3.69862559       0.99038917       0.15753496       0.32015294       0.05949971
Co       1.66921065      12.74312441       0.80993130      -0.02673007      -0.03029686       0.11779246
Ni       3.67750043       6.85185616      12.34780804      -0.01428434       0.00969100       0.00421857
Cu       7.08389557       4.50571800       2.78204683       0.01817234      -0.04044632       0.08916444
Zn       9.67520110      16.62977773      15.12442066       0.07029120      -0.01216892      -0.02119974
Ga      16.60347754       9.60938700       5.32867706      -0.17374024      -0.08358788      -0.25126487
Ge       9.60095365       4.75389912       9.40266709      -0.18785408      -0.01309170      -0.02861634
As      11.00663337      12.20681305      12.86501774      -0.01426484      -0.04638666       0.10235287
Se       6.97051755       9.98061384      12.11298858       0.02769604      -0.17010221      -0.10123686
Br       8.69542998      12.47535082       7.79230663       0.08050968       0.06515031      -0.06479971
Kr       7.23987779      16.25034179       7.76736323      -0.05199217      -0.02138688       0.00198963
Rb       2.48022352       6.60027846       7.94872745       0.01498613      -0.04021925       0.06496295
Sr       9.53248511      12.72930654       4.87111972      -0.00443547      -0.01050450       0.02163745
Y       11.30207871       2.37726838       9.25239613       0.00914595       0.00327753      -0.05456620
Zr      13.71693487       3.10292917      15.90991422      -0.33292136       0.31740412      -0.06416824
Nb       1.31643924      11.07776273       3.30960920       0.01882029       0.20454144       0.10448648
Mo       9.20101330       3.81733966       4.73365453       0.24309537       0.23309940       0.37236503
Tc      12.51826375      11.96525785       4.99293363       0.03611866       0.08462504       0.16728614
Ru      12.18034676      14.34537588       6.00936872      -0.02354213       0.08856954       0.03426615
Rh      15.58907767      10.26368204       2.53850790       0.01771176       0.08903319       0.21543288
Pd       3.89422059      10.53171920       3.09018618      -0.01978845      -0.08219184      -0.02243930
Ag      16.06357750       7.35960597       6.13631806      -0.06693140       0.01510101      -0.02215523
Cd       4.42431238       0.47380801       5.81633510      -0.10952421       0.08371918       0.09200165
In       1.53565021      11.01465785      11.17997786       0.01636978       0.00212962       0.05973668
Sn       0.30927581       0.72031625      10.99836246      -0.03917670       0.09101596       0.09110393
Sb       9.34182501       4.61292748      13.45309946      -0.16585489      -0.07614887      -0.08821132
Te       5.03602084       5.11390295       4.00779721       0.15092187       0.04576685      -0.06450731
I        7.05759314      13.95395268       3.30285779       0.00269397       0.01717664      -0.03877502
Xe      13.95383306      11.11551610       9.49380012      -0.03897109      -0.09100778       0.05597805
Cs       4.49859745      16.56460607       2.39271650       0.00616955      -0.00000512      -0.04035471
Ba      14.23505781      14.35972595       4.96587732      -0.03548881       0.00406736       0.01740883
La      14.10078265       0.03986072      15.90188067      -0.07626103      -0.03619869      -0.09238801
Ce      10.43175673       4.78269439       6.14894409      -0.21309656      -0.20694512      -0.17075157
Pr      11.64756439       5.79892818      14.84863853       0.05819712       0.11764455       0.09352006
Nd      13.97984079       5.65018854       7.87088046      -0.03216361      -0.07973164      -0.01464678
Pm       1.32631967      13.45835449      15.77571682      -0.07649967       0.05296221       0.00250733
Sm       0.58690941       2.34072676       7.95448786       0.07117093       0.12594342      -0.04525216
Eu       6.23343872      11.09545557       9.39277827      -0.01550408      -0.03666554       0.04602762
Gd       3.08039372       3.85686171      11.67821234      -0.07579723       0.02467814      -0.04990773
Tb       8.21810581       7.36663925       8.82927219       0.00671123       0.00388454       0.10919582
Dy       9.86275015       9.77259458      13.47845465       0.04316875       0.09721071      -0.02272519
Ho      11.14691600      14.05956183       8.21889398      -0.00463291       0.03560059      -0.02465907
Er       0.28073653       1.80675191      13.86008571       0.03836295      -0.00713624      -0.03235114
Tm       0.77242064       3.70041451       0.17334187       0.06221850       0.00459927      -0.08110901
Yb      12.91354744      12.55018716      14.82143994      -0.12352857       0.00879669      -0.13534877
Lu      10.13019115       2.90465082      15.77438923       0.07679023       0.04388427       0.16914198
Hf       5.39651804       6.26023350      13.52613272       0.12430678      -0.09676179      -0.21387970
Ta       5.46063488       7.95327521      11.37279741      -0.02115819      -0.01093563      -0.05859597
W        1.49334502      11.23767493       5.98826067       0.12737608       0.31252789       0.04396397
Re      11.84389042       5.03942018       8.51831388       0.18360856      -0.04646540      -0.18108970
Os       3.43629741      11.57244856       7.79058678      -0.10268498      -0.18180741      -0.20713691
Ir       1.28384540       3.96401747       6.62095405      -0.01310265      -0.22397949      -0.01390323
Pt       5.74682371       3.06895547      11.64381265       0.14586058       0.14831853       0.03066234
Au       2.30426740       4.23838752      14.42436392      -0.03992354      -0.03187665       0.00260726
Hg      11.45434328       8.08765168       3.99002502      -0.01437728      -0.01453007       0.00284582
Tl       5.42150899       8.19436510       8.45820513       0.01749089       0.09018146       0.07146722
Pb      12.08897159      15.96419178      10.99248969       0.02979993       0.02005218       0.15476611
Bi       4.85206464       0.76255785      11.15269473      -0.12935078      -0.13683873      -0.04331465
Po       4.64178988      13.20363803      11.57760935       0.01972037      -0.00166063       0.05015410
At      13.66783939      16.66430055       2.46505138      -0.00240456      -0.01854114       0.00487583
Rn       2.49112877       7.10389279       0.63364282       0.00031718       0.08146404      -0.01614031
Fr       0.35693712      14.36813348       7.96836954       0.05407544       0.01757917       0.02079843
Ra      11.61152404       1.00980581       5.37251632       0.04805581       0.01971714       0.03777262
Ac       1.33972337       7.80076166      11.69950335      -0.38349897      -0.07224335       0.03871813
Th       6.58871137       5.53348811      10.75878372       0.08646903      -0.00929715      -0.23946124
Pa      13.69649424      10.75028698       3.83917148       0.11544234      -0.13511491       0.01808671
U       14.30589998       0.46865888       9.09614290       0.28235844       0.06838713      -0.01590833
Np       7.22667816       4.81967793      15.98389195       0.17981613       0.12505919      -0.44545406
Pu       6.41912852       3.08541056       0.27456246      -0.29690373      -0.28033045       0.11962682
Am       8.26744850       2.85749262      11.08093228      -0.07548207       0.15229912       0.02471431
Cm       3.68902389      11.24191407       5.39012357       0.00147736      -0.11019726       0.09396113
Bk       6.30419132       4.17543114      14.04751637       0.24054709      -0.08317173       0.34521836
Cf       9.68400064       4.01794237       2.63890371      -0.04739927      -0.05320513      -0.22344974
Es      14.28336594       9.15497847       0.33272979      -0.09593457      -0.01077196       0.00192415
Fm       3.89351577      12.69887163       1.63588694       0.14081356      -0.01473990      -0.06014613
Md      10.79395947       6.90770715      11.20686719       0.00515200      -0.05962243       0.09671027
No       9.53431264      14.43019285      12.52477010       0.12581947       0.04032961       0.01929357
