102
Lattice="40 0 0 0 40 0 0 0 40" Properties=species:S:1:pos:R:3:forces:R:3 energy=-514.8358154296875 stress="0.0023623581510037184 0.0004277336411178112 -0.0004411346453707665 0.0004277336411178112 0.0033138312865048647 0.0009819295082706958 -0.0004411346453707665 0.0009819295082706958 0.0040074605494737625" pbc="T T T"
H        4.38685397      14.30835317       5.85753055      -0.08408405       0.06219677       0.08959175
He      16.23479030      12.48491262       5.12812206       0.02994667      -0.16869774       0.06799878
Li      10.46175311      12.80364652      12.92132923       0.11484771       0.04614979       0.12254536
Be       7.22661544      10.13383180      13.85193481      -0.09864905      -0.08020571       0.05771534
B        5.82993528      14.88770207      10.77004899      -0.18707699      -0.00528482       0.20310485
C       14.74212954      13.17818873      12.81880410      -0.14612997      -0.12827073      -0.00126421
N       12.31593051       3.68783016      16.17129898      -0.52143884       0.62928152       0.09613104
O        6.30515581       1.80727526      14.18633263       0.06097619       0.08675225      -0.05355827
F        7.62256086       8.32098934       7.34042953      -0.01058686       0.09291426       0.02583062
Ne       0.13835629      15.81943798      10.56660713      -0.05085472       0.01914161       0.01646648
Na       2.39449169       1.38535940       7.97241164      -0.04208492       0.00037010       0.08321157
Mg       3.20274180      10.76369518       3.35662450       0.06172116       0.07814069       0.09538720
Al      12.58133788      13.03263214      14.58852871       0.00875185       0.18783088      -0.14657404
Si      13.82694073       4.92112056       7.85077119       0.08673660       0.01516311      -0.03589568
P       10.82412962       6.45226524       2.77765018      -0.01194800      -0.15927082      -0.12422374
S       14.35173570       7.23352977       4.62342599       0.08995605      -0.02162096       0.13339317
Cl      10.41542875      10.87674173       1.75485075      -0.06393198      -0.19125873      -0.05237792
Ar       9.14339680      13.88261777       5.45117390      -0.01163772       0.00838365      -0.05426564
K        5.64484113       7.86593619       1.85145472       0.05566038       0.01097724       0.02225806
Ca       4.59734192       4.11304537       3.14143740       0.00828922      -0.01223848      -0.00343830
Sc       1.54379580       7.21960239       1.75758407      -0.04241361      -0.10918137      -0.10671224
Ti       4.35198107      15.66708374      11.84658575      -0.08695826       0.04088871      -0.08494825
V       15.80100188       0.65777036       2.24810806      -0.07841133       0.67199183      -0.11689852
Cr      14.20556198      14.91432861       7.08022750      -0.01288763      -0.34864813      -0.47424012
Mn       0.55378764      15.43960879       0.90129974       0.44438148       0.00910891       0.11617842
Fe      15.90646200       7.61668106      10.87985833      -0.06779572      -0.34757981      -0.23765343
Co      13.94493359      16.02059153      15.31826085       0.14819318      -0.01450600       0.15521333
Ni      11.20155536       6.80701224      15.50500280       0.06162277       0.08572450      -0.08706239
Cu      12.30882427       6.84213420       1.12719590       0.12302630       0.06159646      -0.00477640
Zn       2.74823112      15.06108043      15.94930044      -0.11166463       0.02948564       0.02245343
Ga       3.45463546      11.60812129      13.20371736       0.08805466       0.12423807      -0.10059968
Ge       6.97578691       4.65930178       4.75217693       0.07453773       0.11612973      -0.06148887
As       2.70107226       9.52714238       1.23154098       0.02344818       0.04246389      -0.05073305
Se       7.26310095      14.24636249       9.78563504       0.07876140      -0.18625575      -0.18480158
Br       6.34094870      15.49352323       1.84098333       0.01976467       0.05862559       0.01923062
Kr       0.99302712       1.73213729      12.58656428      -0.12834118      -0.00966510       0.02916751
Rb       8.34357071      12.00437789      16.26788483      -0.00248210       0.06766117       0.14604118
Sr      13.57449041      15.30497251      12.33684416      -0.00231556      -0.12813623       0.07871602
Y        5.57623378       2.81340090      12.79024743      -0.00248852      -0.10938387      -0.07531015
Zr       1.19355719       3.00905144       3.74223797      -0.02597096      -0.00191383      -0.00164037
Nb       1.64441028       4.76820049       2.13649067      -0.10303098      -0.07867147      -0.21637897
Mo       8.94997656       4.85089531       6.21120092      -0.08658984       0.03529054      -0.00266838
Tc      16.03550071       7.87758331       8.43533249       0.17941076       0.43552980       0.59014410
Ru      11.99476678      15.12169742      15.01816039       0.08674921      -0.11795904       0.07480991
Rh       4.60568018      13.28745681      11.80232759      -0.10407943      -0.21118879      -0.17077833
Pd       4.68477669      11.60918856       5.48600807       0.11264673       0.03241158       0.13100767
Ag       8.62372471       5.60995618       3.11939714       0.03576598      -0.04163845       0.07827161
Cd       3.63708576       2.02213481       5.32940395      -0.09384781      -0.00417231      -0.06510474
In      15.98419509       3.33790004       7.23116604      -0.06689828      -0.01619530       0.08653571
Sn       1.11165295       5.76851128       4.43630950       0.01150228       0.06172439       0.04916151
Sb       6.96848706       5.10522687      11.34507499      -0.06652381      -0.01808366       0.08261992
Te      12.76560684       1.37634999      10.57658564       0.02286563       0.07841083      -0.03464849
I       11.24967694       0.78618733       5.98393536       0.08591623       0.04009464      -0.04907295
Xe      11.14976916       8.14057760      10.64463473       0.07475503      -0.03049577      -0.03988753
Cs       5.10337822       7.83022605       8.71354885       0.12618732       0.07412357      -0.00736868
Ba      11.06282122       3.42606186       8.35360083      -0.01430399      -0.03910582      -0.05042789
La      14.03140091      15.19989698       5.01696985       0.00021262       0.00544107       0.15263376
Ce       8.46303194       6.79033166       6.07536165       0.05505137      -0.08056074      -0.01314996
Pr      13.74014656      16.44779723       7.86490901      -0.02479970       0.41431999       0.24531697
Nd      15.75506614       6.11906953       9.85651245       0.06248284       0.08365232       0.31831813
Pm       7.28178658       1.98000581       5.89293831      -0.30919468      -0.18773049       0.25694573
Sm      13.86794087      11.17957250      12.69148649       0.16570640       0.18936652       0.03622727
Eu       2.50604802      12.05088284      15.93496938       0.02770352       0.00240401       0.09410892
Gd       5.54502787       3.75848702       7.95736350      -0.10195592      -0.11040647      -0.00927542
Tb       7.98929744       7.73925431      12.69226310      -0.10626781      -0.09700832       0.49463573
Dy      12.13158451       5.66672889       5.17831390      -0.01582665      -0.00129206       0.07751162
Ho       1.34781452      16.22033713       3.51164004       0.14086196       0.04008059       0.08114383
Er       4.71137591      14.13888120       3.79500513       0.07899937      -0.09693231       0.16025217
Tm       6.08960518       0.30984111       9.37123332       0.02775830      -0.14111890       0.02085066
Yb       5.43118667       0.67391309      15.83596860      -0.09469968      -0.02856625      -0.02366788
Lu      13.22297722       5.28964711      15.32867900       0.01423355      -0.00939026       0.23151205
Hf      10.60470783       5.26515687       0.42652295       0.54308105      -0.56566304      -0.06834018
Ta       6.10251169      12.40635227       8.15091744      -0.55959439       0.21687253      -0.12037268
W        5.57806501       1.58745590       7.10496841       0.35481000       0.18617600      -0.20033926
Re      15.32508603      15.36347640       2.65637902      -0.18125229      -0.67867994       0.23825121
Os       8.91726893       6.99735502      15.95398962      -0.22815250       0.14625841      -0.16157743
Ir       7.05287746       8.45738426      15.02091441       0.13014638      -0.04412970      -0.08919492
Pt       4.29515488      14.98207816      14.05550686       0.02184981      -0.03476883       0.05333008
Au       4.08069892       1.51637780      10.66677270      -0.01484266       0.22587469      -0.02246262
Hg       2.27498632       3.86983333       9.40608663      -0.01027114       0.04122599       0.06590393
Tl       7.89913848       2.56265222       9.95552083       0.02572160       0.08213845       0.03203711
Pb       4.29334902       4.09654766       0.01588392       0.02342835       0.04420583       0.07587520
Bi       6.32228262      10.68964927      11.85237115       0.02163415      -0.00480581       0.06446529
Po      15.82731234       5.56715296       0.49420526       0.01682717      -0.03365904       0.03975463
At      12.69637217      12.47341901       6.93663069       0.12352073       0.17207907      -0.06291598
Rn      16.41920821      11.27024460       8.44547135      -0.18533115       0.03217494       0.02522558
Fr       9.17225031      11.14052716       8.79471406       0.04721137       0.04859114      -0.08032925
Ra      11.45166172       1.80157269      14.44293629      -0.01757221       0.00259714       0.09095250
Ac       1.52303683       2.14334124       0.48624660       0.02746258       0.02841775      -0.04778288
Th      14.62094533       3.87359725      10.20703109       0.10387485      -0.07982054      -0.17262477
Pa      15.74789662      13.45037485      14.53407116      -0.15985149       0.19660135       0.13887091
U        4.03264662      13.00973901       7.37596488       0.13015679       0.09995954      -0.21925493
Np       4.42144314      13.31668110       9.56062751       0.65358877      -0.15923007       0.19031997
Pu       9.70679757       8.35260988       1.18524092       0.04124980      -0.07397616       0.01006693
Am       4.73020999       9.33793758      14.70024823       0.05340305      -0.08670491       0.06165939
Cm      15.65267987       7.20405332       6.59171327      -0.30596614      -0.22565436      -0.90312594
Bk       6.98275026       5.30181003      14.98217888      -0.03564619       0.02125706       0.01128215
Cf      15.65845119      15.13685645      16.12527531      -0.29949325      -0.23107138      -0.83430815
Es      12.72098655      14.72020815       0.80991327      -0.04373440      -0.03569353      -0.05589411
Fm      13.76722914       2.75874517       1.06658475      -0.12539840       0.05905041      -0.04593880
Md       6.91857325      15.00603349      12.89146657      -0.08507536       0.00075284      -0.07729238
No       0.51297511       9.70966819      13.36921309       0.02490073      -0.05580712      -0.03799071
