102
Lattice="40 0 0 0 40 0 0 0 40" Properties=species:S:1:pos:R:3:forces:R:3 energy=-514.9644775390625 stress="0.0009344810387119651 -0.0009016563708428293 -0.0005205484922043979 -0.0009016563708428293 0.0024323847610503435 -0.00018025866302195936 -0.0005205484922043979 -0.00018025866302195936 0.001755206030793488" pbc="T T T"
H        8.31017826      14.82859763      15.55596266      -0.07231452       0.06090688      -0.05988990
He       2.90037487      10.75380051       3.06322802      -0.03586233      -0.02363072      -0.03396324
Li       5.68712990       4.55505396      14.46407488      -0.04543329      -0.01061373       0.11149988
Be       5.39811793      12.73510646       7.84570411      -0.01433662       0.00382158      -0.02966637
B        9.94233787      10.98121522       6.47401111       0.04071389      -0.15344010      -0.11903847
C        4.51097231       2.75246643      11.39315762      -0.06333476       0.14179666      -0.15061972
N        1.97798396      15.49879098      15.44111966      -0.15087843       0.10957205       0.11539583
O        5.41573533       5.28860537      13.00273325      -0.08529730      -0.05744870      -0.13552806
F       15.37724681       3.72338941      13.79749127      -0.00612317       0.01887573      -0.07063308
Ne       8.06840544      14.47821602      10.44638526       0.09407379       0.01470993       0.07009321
Na       1.59036558       4.57106375       9.18574271      -0.05840155       0.04223723       0.09882479
Mg      12.75410339       3.01381650       9.65701517       0.03403801       0.04677606      -0.04676261
Al       9.36122991      11.47231813      14.55106816       0.01142582       0.00903304      -0.07427672
Si      13.05621150      14.56796654       5.41694937       0.04133552       0.00275691       0.00541228
P        7.50079009      10.56904910      10.68671656      -0.08651488      -0.00504769       0.10787430
S       13.33540264       6.36133680       7.85873892      -0.32131079       0.04803411      -0.02354328
Cl       9.06184832      16.53523365      13.05107014       0.10138657       0.11576503      -0.19439439
Ar      16.51216088       0.12446002       4.96448276       0.00442031       0.00166377       0.06158100
K       16.14744113      12.14458671       6.07195881      -0.01743435      -0.03542852      -0.00145514
Ca       4.69991636      14.85270051       3.40758387       0.04771028       0.02221172      -0.05828572
Sc       4.04274567      11.17583807      13.39252563       0.09230688       0.03611958      -0.11684881
Ti       4.58827030       4.61760254      11.53939910       0.15502553       0.16361371       0.16986564
V        4.86064218       1.93978652      13.07510476       0.09907922       0.28540054       0.38570252
Cr      15.47186391      14.79555575       0.90245440      -0.20180425       0.12747467      -0.17970404
Mn      13.30786823       1.68237056      14.76104902      -0.15478310      -0.13952836       0.35047460
Fe      13.04583049      10.62551128       2.91156928      -0.04989377      -0.26299483       0.09485758
Co       3.04162996      10.50410473      11.14610843       0.02430326       0.09210862       0.10665438
Ni       1.63134421      14.21324849       8.53603658      -0.02525786       0.01264206       0.08209520
Cu      15.00436476       0.56017427       0.27134405       0.13920116      -0.08048064       0.17779160
Zn      12.33264726       1.72439075       5.76314889       0.08949707      -0.05186000      -0.00072416
Ga      14.47350093       7.51392547      16.26692732       0.01516832      -0.08792877       0.01995044
Ge       4.77806931      13.37572521       6.03151506       0.01350432      -0.01650392       0.13479233
As      16.23931189       7.06521816       2.73310239      -0.03453378      -0.03390353      -0.05247849
Se      13.90067682      10.15621268       7.14731422      -0.02865732       0.03062475       0.03234540
Br      16.03834042      16.46426485      11.34957420      -0.02776714      -0.03822778      -0.04120597
Kr       5.12212156       8.20818685       2.75033038      -0.09939375      -0.05519873      -0.02910186
Rb       8.86941779       2.99754464      12.28806884      -0.08743615      -0.06273498       0.02998454
Sr       6.48827527       8.60401575       9.00064011       0.00060551      -0.00498158       0.02803206
Y       16.58043246      15.58995629       8.89330219       0.09841736       0.03289804       0.04565766
Zr       4.69272944      11.72146811      10.29325926      -0.01036243      -0.13333987       0.06288727
Nb       3.80656735       8.34524644      10.84725710      -0.04214650       0.03903824       0.04900122
Mo       2.95712680       9.82726342       8.70422799      -0.03558581      -0.03000310       0.02415198
Tc       4.50980071       0.85005358      11.74935035       0.01757717      -0.46146488      -0.28211340
Ru       4.24721912       6.13336669       9.43250772      -0.02879760       0.07139912       0.01641414
Rh      10.65984195      10.81518840       4.47262613      -0.09675565       0.01308575       0.10751052
Pd      13.80675348       6.98161293       1.90388081       0.05814070      -0.01120996      -0.01986641
Ag       8.39982448       6.85861582       7.67850137       0.03958225       0.00919539      -0.00069719
Cd       3.46710467      13.80968394      11.94172985      -0.00447013      -0.06309393      -0.01409350
In      12.72051515      16.63010032       0.03162643       0.12139171      -0.13504764      -0.06576359
Sn       9.79525035      10.58900515      11.81213293       0.02819037       0.02515151       0.00697148
Sb       5.59441340       2.84535382       5.83048072       0.04326968      -0.01191809       0.04147378
Te       6.93526828       2.54988508      15.33858997       0.01167550      -0.01992596       0.07760454
I       12.63013122      13.94538692      12.03252546       0.07669088       0.00062989       0.03474235
Xe       0.28084397       5.88837921       6.47162263      -0.09646556       0.06398976      -0.01737198
Cs       1.43964954       3.06927568      14.19403973      -0.03122658       0.00425034       0.02180790
Ba      12.82247130      11.40700724      14.22307250       0.04042468      -0.01149196      -0.04396356
La      14.34083704       3.71470673      15.97893247      -0.04425894       0.05110347       0.01425025
Ce       3.80408579      15.08381818      14.74898702      -0.00892973       0.00931411       0.08780167
Pr       1.45770212      16.24062316       0.58337305       0.02443836      -0.13684776      -0.19099754
Nd       6.88950016      13.09073091      15.65475473      -0.07446749       0.08446360      -0.01394433
Pm      12.54907192       9.28558617       1.48776987      -0.05398154       0.10460580      -0.00726542
Sm      14.05521724      16.20440806       3.11932362      -0.03696643       0.14819711       0.02221245
Eu      11.14991719       5.40011737       7.25789674       0.18239158      -0.03390738      -0.06002059
Gd       3.24315675      15.73200143       9.32753958      -0.06743610      -0.10714871      -0.02195743
Tb       7.12371315      16.36618307      14.70313582       0.08032620      -0.29488498       0.17708303
Dy       9.67747006      13.79743045      12.77185596      -0.17977825       0.07232255       0.08928883
Ho       5.59888902       5.66588366       6.98762396       0.16398697       0.06135111      -0.01981635
Er       4.91420607       2.55152159       9.10376922       0.06110100       0.06943479      -0.15266073
Tm       9.26927168      11.25598369       2.12186402       0.10941848       0.01284231      -0.00890155
Yb       1.60241178       4.69006893       1.94901527       0.03926370       0.05349887       0.00198213
Lu      14.55925656      12.93670519       1.63015024       0.07526848       0.08513774      -0.07514439
Hf       7.08815273      11.50177813      13.02117326       0.07316206      -0.20457894      -0.02538449
Ta       6.00502533       1.68690465       3.38839605       0.05991194       0.00480257       0.17006959
W       15.73217264       5.80513117       0.93618190      -0.06095107      -0.01822928      -0.01983468
Re       5.70377146      13.47104999      13.76946655      -0.10130428      -0.02181603       0.03188235
Os       5.52994708       9.85742019      11.77178071      -0.03963643       0.15914075      -0.10382061
Ir      11.99807737       7.52991652       5.71962669       0.04467809       0.09391731      -0.04631722
Pt       4.92109494      15.82550624       0.47333866       0.03411385       0.04684145       0.03179843
Au       3.82691967       3.23517624       0.55615425      -0.07500077       0.04104042       0.04171612
Hg      11.29299555       4.97622466      10.66863391       0.05190848       0.00006421      -0.03321316
Tl       7.35283840      16.13110198       3.30488212      -0.00408375      -0.00472049      -0.03038835
Pb      12.46359071      12.94894791       3.70340835      -0.05357411       0.13618624       0.07054181
Bi      16.49586529       2.53190202       1.10332121      -0.02791140      -0.03969342       0.00658698
Po      15.16231225      13.23255044      15.51592166       0.07819226      -0.03335555       0.07193458
At       0.76449191       1.71133716       8.08867792      -0.04245161      -0.02677877      -0.00301906
Rn      13.70718711       8.40350604      11.54678944      -0.02073179      -0.02311301      -0.01563920
Fr       0.69002033       8.65965323      12.99971572       0.02910575       0.01076900      -0.05407765
Ra       8.57815641      13.54413421       5.77168086       0.00897808       0.03900702      -0.16362900
Ac       6.16440048       7.48241898      13.04372437       0.02619895      -0.02663759       0.03850020
Th       9.55308770       8.70885560       5.45134406       0.15965389       0.13039635       0.01822218
Pa      13.82590411       2.21110696      13.08859989       0.07227433       0.04688773      -0.30929229
U        5.52213376       1.27528146       1.38697923      -0.15957123      -0.07987799      -0.15568927
Np       3.55506436       7.77574913       8.22157303      -0.07535709      -0.04303516       0.01712466
Pu      12.81470212       9.39436528       4.51675036      -0.04143769       0.00006023      -0.15751053
Am       3.78889029      11.14634354       7.22422236       0.13759793       0.13289005      -0.10681950
Cm       8.74561149      11.12809309       8.43174837       0.03444636      -0.00053653       0.05723694
Bk      11.83792592       8.56630063       8.17436778       0.06940220       0.09455857       0.08101210
Cf       7.92398013       9.49572267      15.78328507       0.04152918      -0.07229684       0.10303547
Es       0.69301922      14.60011259      13.82106736      -0.00321382       0.00366125      -0.08527056
Fm      12.02745965      12.25707014       6.81401318      -0.02322534      -0.03002244       0.01204056
Md       0.80203017       7.52857669       0.11010907      -0.00237465      -0.02568960       0.04100947
No       3.17049349       1.93894656       4.18209076       0.01271875      -0.11765882      -0.13417694
